/*--------------------------------*- C++ -*----------------------------------*\
| =========                 |                                                 |
| \\      /  F ield         | OpenFOAM: The Open Source CFD Toolbox           |
|  \\    /   O peration     | Version:  v2406                                 |
|   \\  /    A nd           | Website:  www.openfoam.com                      |
|    \\/     M anipulation  |                                                 |
\*---------------------------------------------------------------------------*/
FoamFile
{
    version     2.0;
    format      ascii;
    class       volScalarField;
    object      T;
}
// * * * * * * * * * * * * * * * * * * * * * * * * * * * * * * * * * * * * * //

dimensions      [0 0 0 1 0 0 0];

internalField   uniform 300;

boundaryField
{
    inlet
    {
        type            fixedValue;
        value           uniform 330;
    }

    outlet
    {
        type            fixedValue;
        value           uniform 300;
    }

    wall
    {
        type            fixedValue;
        value           nonuniform List<scalar>
36979
(
308.85722565063236
309.8519178942247
309.9553850937157
309.96510824080616
310.0614580331657
310.13698648216
308.8887842070127
308.54072990426465
308.2795931275484
309.3592818731543
308.92558320126363
308.919454020619
308.90844413985405
308.91558873654725
308.9016416056362
308.9600091101544
308.94791408334765
308.93672588141266
308.966588472067
308.9567816036878
308.98865511687757
310.3778217226953
310.9313415810562
308.45325341490644
310.2573831274217
308.97941323915586
308.97040037907954
310.7638194038825
310.73419890044516
310.50566651741343
308.31640096073676
310.44567520357185
310.62374336882147
310.590391060682
308.90483705624627
308.8939008449889
308.88600907619013
308.8742162380243
308.89294772359534
308.8431920197944
308.8226465226859
308.85089838008275
308.83890521726096
308.85363989579486
308.8364573032244
308.82465393816835
308.8176710973438
308.80541666215225
308.8198730537503
308.78440076888864
308.76964000137673
308.7754044609992
308.7640311538247
308.77702648656816
308.7628326940149
308.75092770512026
308.7426389371618
308.7304543448417
308.7421832483478
308.71105201737385
308.6960997705219
308.68099636597316
308.67010464269305
308.69250178425693
308.68224380373385
308.66876069775043
308.6613180835902
308.6463223468479
308.65552718631676
308.62694470857065
308.6091759920824
308.5206118959194
308.48358909649636
308.5878270654449
308.5707633030094
308.5528370610302
308.55448235786395
308.5361573912133
308.5420945510485
308.52844132266307
308.5106420294202
308.48306929760747
308.46551834328756
308.484712005256
308.47588598029256
308.46357079066576
308.47280932805825
308.4588882075021
308.45637778907036
308.46312580061664
308.5178304747612
308.5625738306081
308.6265924699805
308.676064879204
308.7186186544886
308.76117283887305
308.7982076052608
308.8383016390162
308.8718945101694
308.9109251418129
308.94064858528077
308.9761724473768
308.99960667489984
308.9665114130191
308.9322780701307
308.8935941753719
308.85532333122694
308.8153349128727
308.77244223416153
308.7348735788032
308.6838529127425
308.64126204922906
308.5744157835511
308.52881662029404
308.4663184072146
308.87304770493006
308.8375065141746
309.01155085640704
308.791368145137
308.9849747883214
308.91445433814897
308.9479748159055
308.75561883406846
308.7077671565161
308.66554376919885
308.6074492074398
308.55084318563905
308.5000867487681
308.45503402745214
308.4435155817279
308.9481656808091
308.9612512278582
308.79870659923574
308.65696807354254
308.4656711427522
308.44769099431977
308.6731994344182
308.542294005821
308.75346943687475
308.85494089475304
308.99169015892716
308.66613704704383
308.5231528012236
308.42267077067123
308.7727058820815
308.5396347202992
308.61894444681644
308.7239234364384
308.9390985073805
308.83587420103476
308.86490091656253
308.76508130423315
309.0104327378326
308.91283932008525
308.43918004275884
308.5735730890118
308.88871017428744
309.0200919745687
308.70237078035495
308.7614206159772
308.45206786143723
308.76396116844074
308.65977119292717
308.5439884614382
308.544118016468
308.85785492319815
308.40482174783335
308.8268622520155
308.8649762408949
308.7529231481472
309.0272420122705
308.86188860130875
308.52651623620903
309.5080579487544
309.65062745132445
308.6539295367549
308.919952702009
308.6676951043914
308.9601294640148
308.79215704975405
309.0298895594642
308.67552686835154
308.80534113635434
308.87835837683224
308.7100732005746
308.6334310685905
309.0014752150325
308.7744034046738
308.4608247473775
309.4223462152788
309.399442595941
308.5082586959959
308.88885975777055
308.77936206183057
309.2991988425654
308.5796229947095
308.8463098128786
308.7442201238554
309.16529511719017
309.03597282390615
308.9327146292172
308.80153821871556
308.5306174910679
309.171115833285
308.7990952690739
308.8638305516818
308.6506042103505
309.27645801444015
308.8989139000662
308.5698544240404
308.9588996798122
308.6583841494232
308.89783067093987
308.98719392643864
308.95145088179737
308.5966460969875
309.02845067020814
308.90594701861625
308.62111745816577
308.7640088476756
308.9488388274779
309.15636730540916
308.82734218369814
308.9437571493768
309.23269107260666
309.06668234639574
309.1673839045524
309.10388133648604
309.0159839518458
309.0508408454315
309.095248343093
309.0920134078067
309.13070723432065
309.1290330685739
309.0961706147257
309.10091657771187
309.1604804042969
309.1592491050861
309.18811118263676
309.18722767501185
309.16197868434347
309.1648262966484
309.2387402277633
309.23807462838056
309.2520634102911
309.2512089713119
309.23300836926126
309.23682089146445
309.2569345858358
309.2477927899814
309.2945294886917
309.28965220488
309.201340152384
309.2327705145733
309.32580515268353
309.32302120242343
309.3508228919957
309.34839982262326
309.32035698743846
309.32555539485537
309.3728110182452
309.37087429620186
309.3927051873674
309.3913849482092
309.3669053628351
309.371572089071
309.4099983469508
309.4091204567344
309.42050411030374
309.41961653844083
309.40199644332876
309.4059199134784
309.4210643302929
309.4131368551059
309.45108024389066
309.44320607756475
309.3386333344303
309.3767531950788
309.4815605225316
309.4774433496837
309.50436271726977
309.50073058711814
309.4710656317358
309.47732635482635
309.5223696088467
309.5194926750711
309.53692102363436
309.53493617495394
309.5113043402252
309.51679225941325
309.548784187449
309.5470951962737
309.55541721692964
309.55380578287867
309.5371485061752
309.54164253599293
309.5512651790246
309.5457816989682
309.5682686443289
309.5576576529582
309.49662819132584
309.50253438676884
309.59984437249335
309.59514350396825
309.62157098283393
309.6176485441485
309.5858845233335
309.5934704817782
309.63776295227683
309.6340976397734
309.6497010945635
309.6465727076861
309.6232146724954
309.629304308902
309.65820233445226
309.65570132026625
309.662589774381
309.6606390533109
309.6445115793545
309.6489972845094
309.65793156453134
309.654401557479
309.66154214271796
309.6450647431541
309.6254973608036
309.6239803642308
309.6941715728102
309.68761734443734
309.7158845322037
309.7116113477614
309.67772841671535
309.6856468605623
309.7312892779381
309.72766031490903
309.74268218080925
309.7395659238138
309.7166491649486
309.72210181967296
309.75089274977125
309.7482684565536
309.75565909162407
309.7533484803449
309.7363545937024
309.7410108927924
309.75282959915415
309.75000936670006
309.74503873607074
309.7269441867692
309.7293852833825
309.72967637974193
309.775488636229
309.7666820257109
309.79788749944134
309.7932439312109
309.75537974100126
309.7646106412662
309.8127785184545
309.8089675170099
309.8237342289465
309.82034103129257
309.79753218917404
309.8030334141739
309.83166896994476
309.8287821013638
309.8365899432589
309.83405735582403
309.816585944075
309.8212502002176
309.9341188010798
309.9385735963761
309.94868113116985
309.9455679676339
309.90998007429874
309.916084114485
309.9274542662707
309.9207569718306
309.9401161393394
309.9359585232952
309.83549581297694
309.83287382201854
309.8231138963805
309.80957270786894
309.8161820352528
309.81764562634896
309.84211400454365
309.8275041640179
309.89201455064983
309.88439313090305
309.9044552903769
309.8846888728749
309.8868602774531
309.8890448716449
309.8886920134639
309.89263800961777
309.9038809365688
309.9014808909135
309.84497734834923
309.8326746831162
309.8679828614212
309.86295352841114
309.8189017435099
309.8306232694582
309.88411576354923
309.88866354121217
309.8767426830437
309.88160698307286
309.89928089641336
309.89628932643143
309.86668308844924
309.8719725347001
309.85184772784544
309.85818040556313
309.88172667869236
309.87816524850206
309.21343167851103
309.21705743328454
309.18878160356377
309.1918899487577
309.21475799339436
309.2140161601807
309.0289811658156
309.0449253852783
309.0058022934906
309.01201957350526
309.04840277294596
309.04024380803355
309.019423363663
309.0219263206554
308.99909976991194
309.00058516914646
309.02144818735377
309.02124953333555
308.97039640627975
308.97074178385276
308.93854429465347
308.93797058981164
308.96089126888984
308.96126146802663
308.9037761642425
308.90259045750923
308.8627206717932
308.8618615498226
308.88618245301325
308.8899644473631
308.80139308583944
308.8047558824466
308.7298873651114
308.7396418091768
308.7868009998766
308.78552209790087
308.7531212478582
308.75029397163314
308.73637543271667
308.73320235105285
308.74552329407624
308.747999379667
308.7081586715418
308.70512626203396
308.67494278171955
308.6716132724278
308.6897044543091
308.69301056460023
308.6379288239684
308.63370852305485
308.59530572156837
308.5902600838677
308.6119012418434
308.6163657280625
308.53942785493996
308.5361443259022
308.3751527374586
308.46128504692757
308.5074956349529
308.50979932746657
308.46121784032425
308.4482918727154
308.4503654265855
308.4340786352961
308.41773953474546
308.43350144805834
308.3901315058848
308.40109875445967
308.4050417243269
308.41839384639746
308.43046236626145
308.41609015712663
308.8408522675992
308.84586838513854
308.9258905278749
308.92705862247533
308.993485001197
308.99343852110536
309.0337927639465
309.0329049355369
309.13254501257444
309.13566684060993
309.2313470066967
309.23528850273726
308.75810857354463
308.7575961230539
309.28658080391523
309.2939080780772
309.3451030088597
309.34998538795895
309.38649341249186
309.3908119321574
309.4048615742758
309.4079846389226
309.4346807112933
309.4447596190051
309.4934465729726
309.49919040205236
309.5260246442632
309.53112465307635
309.5402977722634
309.543341297422
309.538676313546
309.55554711668043
309.6075836443596
309.61413383208304
309.63546169747445
309.6408598504351
309.6477964445818
309.65097434171787
309.6028418191575
309.6317826085958
309.7013139362218
309.70739682691084
308.72127138683095
308.7241197776843
309.7280533008751
309.73312118535307
309.7403429607355
309.7441374558446
309.8084971841325
309.8135684781175
309.60327106673634
309.6727357759373
309.78236133025865
309.78865353900153
309.82117337781074
309.8250824571941
309.8916527227558
309.8885704184311
309.90416381646537
309.90135086114765
309.70461977991977
309.70692960368586
309.86573002279937
309.8818890857914
309.9247352290807
309.92968233743716
308.6532114889259
308.65708640683323
308.56435348016856
308.56880467840494
308.45061533254017
308.4560777210078
308.3818601766307
308.3699144780903
308.36855714440463
308.37867540220924
308.4077459254488
308.3953717235135
308.7477491282282
308.3770367221457
308.1977257314809
308.79443376091837
308.7446411417042
308.70070753638885
308.7283215905804
308.6435023933118
308.69119716677744
308.6155257626448
308.7722666936949
308.80332682772433
308.73639485079457
308.5217146129742
308.41491500530645
308.82299277391553
308.84307150144105
308.7964030594186
308.3732752212227
308.7596728770795
308.7219763209508
308.6554087794401
308.5709106869106
308.69269069393135
308.7677619973028
308.3580140945243
308.3885122757394
308.46668807798847
308.75908835382427
308.6892936582687
308.7064252064107
308.58509170985013
308.5223903481657
308.31867266208866
308.6115076039684
308.72416574923443
308.65089888980305
308.4829431847983
308.5690769354828
308.3895565050324
308.3300376117042
308.65451883564765
308.73163177537333
308.43751050564555
308.60108589732744
308.64174831963464
308.69177449283876
308.5203897094369
308.3569743836355
308.64626721261794
308.5673566183398
308.4641438174896
308.45880204397554
308.5360715280807
308.3053539167081
308.41135132137816
308.5305359193223
308.45217649298775
308.592476953697
308.39372938141884
308.4624789772137
308.3944889900306
308.3945065699507
309.83446692188375
309.82917733730216
309.81821850768347
309.7964431364097
309.7593552169582
309.7482068263849
309.7365684396076
309.7139149913764
309.67471690200625
309.65463584203536
309.64476001371037
309.62038348333175
309.57690067829895
309.54756330152003
309.531973093554
309.50625462054313
309.4590494413043
309.4144135732041
309.38901556862237
309.352580150741
309.3019332116712
309.24588438182343
309.21384488101654
309.16333792593866
309.10486180919685
309.0322781572047
308.9957498597123
308.9317823169695
308.8567705637415
308.77946599790454
308.50185082589036
308.5395221777053
308.60798188798475
308.65145797820617
308.70909412766275
308.7405007589297
308.78782932209157
308.82222556052636
308.8655435638221
308.901211487261
308.9361668675565
308.96913270098094
309.0008203143475
309.0242056443972
309.9290490896186
309.900641631489
309.8970952079653
309.8861020048089
309.8663664957029
309.6515602599202
309.9160563730103
309.9356203712281
309.5533893971039
309.6012819187724
309.54253349781703
308.8416838301188
309.5186092172988
309.48519721679776
308.4765855868939
308.5808200223009
308.6256543192161
309.2334267161349
308.48778650131123
308.68593001973016
309.7477911989701
309.78001617250936
309.2690272578716
309.7439297068947
309.8091995762472
309.8934654194748
309.89665279631055
309.63447419246285
309.3299153964219
308.7265934725852
309.3716705523927
309.7268373497204
308.9660316410146
309.01821561865154
309.8247168541364
309.06665516647115
309.8289976921821
309.40401193963686
308.7637579330528
308.8059661061327
308.89330435218915
309.8520499829707
309.87692704988456
309.696934976835
309.1362997171516
308.84615025862433
309.43071234952777
308.9845222251226
309.0118224246935
309.18891574719544
309.65637642509824
308.95244621259775
308.8833620337681
308.9193730549235
308.8632626828635
308.76598298442116
309.63603030775977
308.7969082064006
309.27556555910974
308.99163360764743
309.507642196855
309.8666386490286
309.64057023256186
308.8247656333684
309.24652044258903
309.85668667675486
309.4884869998574
308.97666798804437
308.89733478918447
309.89277862428315
309.59477115934266
308.6963313066537
309.15744874866607
308.8931329656081
308.92287612045277
309.7043911551729
309.6762430448318
309.3790653282408
309.07715405840764
309.20852059328564
309.7495286482223
308.64688677278735
308.75575106215337
308.93502829012
309.72448097195235
309.6494296751576
309.80590368479585
309.7756246944995
309.8225701853008
309.83756741093146
309.3465830939784
309.0150128708129
308.95316958577297
308.8973669054685
308.8511999510793
309.6107115221916
309.88738711582386
309.76159633125246
309.7897785461989
308.685501177689
309.81426878845235
309.30644221162885
309.8770216261926
309.8499876328932
309.8268733720993
309.3966752828821
309.71516363851936
309.73461658192116
309.5746971716795
309.6913421487989
309.7434083177299
309.3628983313736
309.66102459721805
309.1842414208023
309.3313231401666
309.0430271920911
308.73119318113567
308.9162662450904
309.22345227859876
308.96712879802055
308.6166069598158
309.11014239458274
309.1373494850738
309.52255153461897
308.9939759724761
308.9895189162869
308.76691187040075
309.9029916489748
308.8960090470354
309.6240353666451
308.8577789993792
308.86388715932634
309.4567008700638
309.0665391039906
308.5412667755498
309.04326610759705
309.54059778302656
309.4708353943978
309.91718176972927
309.5350600214001
309.801536778077
309.41566349439665
308.86134118952594
308.53626693580105
309.0217678304113
308.5739284245247
309.0656073090374
309.5543741134843
308.8014133131474
309.0586228706668
309.790297539005
308.9758884514044
309.80710762585045
308.9484058615311
309.88582101389625
309.43683988748097
309.4937848265776
309.4433021541269
308.98694150342567
309.6299953217227
309.34665312584394
309.6977821028541
309.0586659746755
308.7477321363735
308.8273929538936
308.93109210417697
309.6783743338483
309.1496789575258
309.6550969098087
309.0115890252763
308.7821774513815
309.88274404050054
309.6147717498985
309.36793169009945
308.78150623913933
309.71159408691193
309.67006723109114
309.18527456400165
309.3313095722283
309.038768745136
309.6923574308588
309.04813686864173
308.70012064629907
309.6451241594826
308.9863066356744
308.8436190397271
309.8731340597382
309.0560013135626
309.11734503711045
308.938950371581
308.93440635810714
308.8243401245313
308.9365963303926
309.7808421583473
309.81793181408136
309.7307513731075
309.87076260804076
309.3162053583551
309.83230422920974
309.7440926036226
308.88555188276166
309.24359965808827
309.54493155313133
309.5806174256358
309.1181145217644
309.0539236582486
308.64954458385876
309.7500517823962
309.1312923737982
309.565551814822
309.27914573164924
308.85480197483884
309.59352438097096
309.5263154244363
309.21339507734746
309.84210014715285
309.89445305508576
309.5179018296794
309.41552593233513
309.76954450611925
309.1039030384387
309.4465873014942
309.113137393583
308.9493889100812
308.58941089551604
309.0838431485058
309.8546183706046
308.881409671922
309.4181649282592
309.39242045080056
309.12437762851636
309.26979104566516
308.94559338836166
309.6611990482108
309.6258482698066
308.9030371841124
308.8455477491823
309.1013472438771
309.7717277529273
309.0059312075022
309.56937576612506
309.1287891922879
308.8548606910146
308.7976427486629
309.79296044553075
308.96574555596015
309.1364042060067
309.39273155791045
309.75096541707467
309.59879649223814
309.5484722584149
309.0321551378608
309.02527505251464
309.0830992716324
308.94079230727925
308.87992068828055
309.1648755774008
309.64594124656327
309.32282719431066
309.7997536900368
309.6990634398186
309.20133267507
309.5329655358813
308.9698336871043
308.90883986975365
309.00485831876335
308.5473041180488
309.29475220350463
309.17564854167875
309.7235432593042
309.8086725544375
309.5576625500815
309.5099108434051
308.9982206195799
309.23866235903944
309.00336746405134
308.9534317823839
309.18503118720497
309.7474538256903
309.3636085347204
309.673807361203
308.7234869168928
308.75845577003895
309.8393189577265
308.98470232474824
309.060821721177
309.4848520532084
309.04733693087627
308.83806270394956
308.7024384574106
308.7217065852807
308.6542996437497
308.80984871054585
308.6476277629123
309.18687864863546
308.9390220983383
309.241590487896
308.9456095911617
309.8234457397077
309.28414298598295
309.00027889598545
308.9605713396173
309.2225592370192
308.9984130514202
309.0408000282708
309.0248249422876
309.3429761872481
309.6057770219782
309.70489817584985
309.1919888693151
309.55035614968
308.96071713328007
309.77166350379173
309.3530496657108
309.12776284894653
309.1259818197241
309.0824189739443
308.6505324314001
308.64805900172456
308.71020098453243
309.7181432965042
308.8269019871044
309.1421565983298
309.3649507810467
309.75825535703405
309.38196729786023
309.59031004367597
309.0387481883054
308.90930808662125
309.0109375684169
309.1733487164297
309.52603110013143
309.3022816761201
309.61477154899075
309.4164882397056
309.206171773312
309.69674248581106
309.46853920079366
309.2184444922022
309.65074427003987
309.10416539839895
309.03966120255905
309.0828116745759
309.5589523982989
309.22203828210274
309.50027625520073
309.68792391902997
309.49756286429493
309.0759921594574
309.1545970493337
309.03577830462575
309.1416845608043
309.32353987989114
309.35418955211094
309.7467170568501
309.6997638972861
309.35387613552257
309.4055783978928
309.09273518689645
309.72355593507893
309.28452879733027
309.67783369468225
309.30597177129385
309.15498369526154
309.5542407027372
309.2383313463614
309.41483575419403
309.4992447145567
309.67824972436244
309.1333009254276
308.46558008627994
309.19107502181464
309.46999731182524
309.5785457078645
309.46670334927717
309.1945492537674
309.60020243974276
309.5857854803961
309.1278143258632
309.63017387383417
309.6505289556217
309.2061637898578
309.1548417650463
309.6411332326182
309.21071253477857
309.67982630902765
309.4919918553539
309.28666317930697
309.47824377177193
309.51890442182525
309.2377253660477
309.5611675740812
309.34458777460924
309.39398569044056
309.4402641775086
309.19360933457824
309.4044685692598
309.2785848677846
309.6284636457694
309.34791436072976
309.56297843167647
309.58234302564324
309.2853250850185
309.2608869018017
309.564437591554
309.5402011459284
309.4932925832197
309.3375642487444
309.48374197239707
309.2709829567426
309.30899605278285
309.42345545313276
309.48211584973484
309.38115180171155
309.35978441856787
309.4042731203219
308.2110267119697
308.2401678213192
308.2546500238778
308.2271663346422
308.289332657797
308.35187112686947
308.33835765705754
308.3930002717271
308.44671341363727
308.49278264306207
308.53212570697696
308.6369273885671
308.70676137691294
308.76467588907406
308.80295241765776
308.8996841569055
308.965265199972
309.01801626997576
309.041415011898
309.1225380444524
309.1809730576449
309.2282278556976
309.24861792307877
309.31057813001206
309.35820243547204
309.39901772500684
309.8220994682727
309.4141030545035
309.48562056539043
309.52110205473207
309.5444272013114
309.5444457300672
309.6000348188219
309.63079025263517
309.65158043869053
309.6485006306517
309.6955557689341
309.72615603835624
309.7427508445502
309.73907343970006
309.77688345732764
309.80693409717884
309.8233963612702
309.8220144846047
309.8469085708345
309.8761046485423
309.8908286976952
309.8915391226423
309.9075804575027
309.93429409604363
308.4720251552229
308.4968311987233
308.5922113554889
309.64271312764083
309.6541426789402
308.228595666206
308.20120342240523
308.2804328810053
309.8845551166903
309.89456415154297
309.6707340289531
309.8847268458729
309.4623546953828
309.50479621107684
309.7129562437063
309.4122045568692
309.4300592215977
309.616807639747
309.92376641485276
308.4193949577587
309.37972185805046
308.7789984998926
308.85625328494615
309.8642940739465
309.15333892782405
309.20598734506456
309.08382410307615
309.8164127972446
309.8270612837465
309.8208052021594
308.6735711627576
309.5764194215894
309.2445905332249
309.03248540158563
308.9346791407703
309.7941823129807
309.7358638797544
308.73844511161695
308.99387805718834
309.5345635712423
309.3356218011381
309.2773338496367
309.75099426514055
309.74549827431736
309.5456718590238
309.6965149043657
308.622532532048
308.2708766576351
308.2971772836713
308.36338475017044
308.2475242864144
308.35603597646434
309.5967808179847
308.80651217695424
308.49900564687533
309.7340268638427
308.6462662383383
309.88629903855724
309.7514637502503
309.6381071881014
309.8321368691129
309.6627491002241
308.4358993736215
308.74307157245414
308.9675038082006
309.7241174787712
308.55467602913103
309.9169143015598
309.76785137800306
309.8635078198723
309.9049940458626
309.3707869050267
309.80519309875206
309.56375511202816
309.0871634321283
309.8445893302067
309.93535750650307
309.14676718298193
309.69263970489993
309.26350289351194
309.2011564677772
308.90292220667914
309.4139664212385
309.51665489847886
309.5350906533463
309.94449051168
308.32978241936104
308.3680299504121
308.4666393293145
308.6850457055871
308.77735870899363
309.8761861437997
309.5784248209403
309.9093033829679
309.7090214978609
309.9278879511144
308.4240699591915
309.7595866535621
309.7363254597852
309.89909416542145
308.9398429248582
309.7435136582931
309.6712244561462
309.8499020024202
309.791293136423
309.62379774812166
308.9919699635771
309.8394056621341
309.2855948871501
309.39359037885384
309.6513204110029
309.6772156828883
309.8168591026788
309.34788441370796
309.7766863133238
308.5809434093112
308.86161787647484
309.24214758965445
309.2216674825448
309.4261915693701
309.17435524753824
309.49737585397
309.11760462561
308.6039028241946
308.52857399424164
309.82421752070894
309.05998821462555
309.55509784472594
309.53059477869215
308.3419274483786
308.33319255303934
309.6106708087114
308.3521370615173
309.6329528205699
309.4625430681628
309.01876018423644
309.8297691456785
308.7098411685905
309.89228232324933
308.82475250201264
309.30930860134634
309.543799678703
309.44186930688124
309.4795049251566
309.03774717884215
308.8220365096442
309.8861390381719
308.7831452773428
309.87419314114135
309.3278659352273
308.3843355617045
309.95438883031846
309.9170303799685
309.71736825302037
308.94440289566114
309.65991061215055
309.59331684124635
309.1410937782279
309.84205961436805
309.7613517186323
309.9317686951801
309.4080110870683
309.19246887587417
309.08810958894975
309.57109552044545
309.3567452001061
309.50779336616074
309.37994107340427
309.9424067233549
309.90805067093424
309.6755035530252
309.7346752934965
308.9035991315878
308.5045919084541
309.6443105371658
309.5750979075418
309.1131863425043
309.92258264589213
309.77484131125243
309.85359457767873
309.70214888089015
308.9831739559724
309.38244326383716
309.1658673313899
309.43325135703657
309.53233638036227
309.6118110648431
309.8280699460708
309.22605455141576
309.89719706252583
308.85802862298334
309.7478837763787
309.6643237233724
309.47685976927534
308.65045410722024
308.43697913792363
309.78552737513166
308.73829975368164
308.5178133366086
308.58875002674205
309.28159095466776
308.43121234445124
309.55647966023406
309.0128101279232
309.4586018429502
309.86095498146403
308.98933650812154
308.4758430188521
309.56374220305383
309.6290820878877
308.55543782725124
309.3092526483911
308.42624079873303
308.41463911204147
308.440378613979
309.2567747889599
309.68713602745186
308.6997125035885
309.04985945681796
309.33235263592223
309.48334627177826
309.8004779747807
309.8143389132374
309.1246650896703
309.7375348532228
308.6180056633592
309.9305870531944
308.9408359431462
309.6670577130246
309.83442911304434
309.95023082918453
309.39440311775957
308.30194890460535
309.88139897071295
309.5083958060918
308.6148842600245
309.9173870624241
309.21094719925225
308.47695580715464
308.9826375057009
309.64554263089525
309.96213507408885
309.8201040331093
309.42065447119603
309.9410745619194
309.36363662325084
309.8691360268743
309.8533920680791
308.5730287649005
309.6015539781628
309.08286335721175
309.1690319828598
309.41774134570073
309.75251405640114
309.79018803376806
309.6172646455668
309.7168946853438
308.5025680458218
308.8265600700462
309.4936919581127
309.4443312284824
309.6323909640132
309.70660126680684
309.3366969212589
308.7834681597804
308.4929658258839
308.6503949895139
309.248157627629
308.87111034380877
309.47170159816056
309.89210815060346
309.60071082024376
309.77124237959475
309.690184275175
309.51413176048834
309.0896464682855
309.84265235250876
308.90194596882895
309.28104643342175
309.9076986926192
309.2923457058438
308.71251371955066
309.56853297724535
308.5258197586841
309.58572871027656
309.2723614163886
309.73044138476007
309.9053579214995
308.6718895254976
309.3216637068083
309.54281719472715
308.51359918961487
309.03301575595094
309.80655208098784
308.51412333522694
309.69761620495996
309.8413848967855
309.14892658579515
309.9202532044421
308.619223791583
309.45443549548946
309.67434515773533
308.7522929020946
309.31250504982603
309.790125379623
309.9429394371236
309.1144851613527
309.1700036053785
309.6369184633215
309.23793984816484
309.53930286032846
309.2403536487204
309.16976654862566
309.3625419975038
308.95755712795085
309.45352928692625
308.67828071958195
309.3365468080229
309.2387439479325
309.48295717401027
309.02022419119646
309.41559113306096
308.6256081218264
309.7888405810157
309.36287267126517
309.6996838329768
308.92847155574606
309.92647992771384
309.9054252326971
309.7559646926151
309.86564023236843
308.58456649617176
309.6160306876411
309.2273884943898
309.86187017974567
308.87907067955564
309.7950589755217
309.51022315067263
308.7636230274706
309.9211314871324
309.18919203529236
308.5800087797348
308.7939025815164
309.5560851881206
309.87863065354986
309.68733954406247
309.7790902900361
309.08030472715745
309.6010239950038
308.7182183336909
309.279997284989
308.979865591919
309.0633056292952
309.620521672239
309.1284791644169
309.969191100772
309.6473512679249
309.5836904163183
309.1675525999834
309.95117170478875
309.68447627322655
309.2627651418313
309.3855619112236
309.30977683502636
309.4812009723637
309.93488683597496
309.7191833014423
309.7941523916719
309.43070923175065
309.9675684516325
309.23649246201614
309.59898139977435
309.407428549146
308.5935536065189
309.56420273148996
309.3282383589449
309.7545054274733
308.95023740975
309.8758820583996
309.1334560907675
308.93459102636433
309.7983292889212
308.83884520984805
309.4831983527774
309.7623404237574
309.0316754389938
309.8558960378189
309.1568212298247
309.675791993917
309.70728321614314
309.82055622738085
308.9824064283927
309.17662081557387
308.89528992098
309.8235422719325
309.0903052232819
309.7842704877122
309.4617470430351
309.91026776495397
309.53506727435916
308.7887987127562
308.66515774719534
309.877633831934
308.85545587477384
308.73778628531835
309.5783521379559
309.0906491241979
309.27610694531234
309.3159225457214
309.63134527919283
309.9280643942551
309.6588772455897
309.84441209163515
309.42806640093164
308.68058678715147
308.7080549999657
309.699770373469
309.9615248441358
309.365778080186
309.615277821809
309.7940857156585
309.1517200267024
309.9417024581132
309.8411026642505
309.5168511752708
309.21373083701553
308.9233944873452
309.04422447185675
309.73954792338617
309.9174241565594
309.8954719030762
309.89421304239295
308.9884759641123