/*--------------------------------*- C++ -*----------------------------------*\
| =========                 |                                                 |
| \\      /  F ield         | OpenFOAM: The Open Source CFD Toolbox           |
|  \\    /   O peration     | Version:  v2406                                 |
|   \\  /    A nd           | Website:  www.openfoam.com                      |
|    \\/     M anipulation  |                                                 |
\*---------------------------------------------------------------------------*/
FoamFile
{
    version     2.0;
    format      ascii;
    class       volScalarField;
    object      T;
}
// * * * * * * * * * * * * * * * * * * * * * * * * * * * * * * * * * * * * * //

dimensions      [0 0 0 1 0 0 0];

internalField   uniform 300;

boundaryField
{
    inlet
    {
        type            fixedValue;
        value           uniform 330;
    }

    outlet
    {
        type            fixedValue;
        value           uniform 300;
    }

    wall
    {
        type            fixedValue;
        value           nonuniform List<scalar>
36979
(
355.44159784922203
355.5779897019608
356.0060307128984
356.0317686082446
356.5076073199269
356.8553555460042
355.8697106811299
354.6154110395019
353.7824527306397
353.1944525880001
351.5742069485334
351.63570838626816
351.58328907609643
351.32356857065986
351.2225333525521
351.65043740118875
351.63266896290554
351.5731735161249
351.7356009497
351.68273086368436
351.69369613918315
357.90203692465656
360.31780224935983
354.32212999924707
357.4118138559182
351.7504268908009
351.69907934743196
359.73773682884644
359.53688114640244
358.51578298715754
353.85210003353
358.31473567946404
359.00501860231236
359.0868894303038
351.64500744481074
351.594555980522
351.5749894947434
351.52127261783517
351.56416818481745
351.06754164811093
350.85870742419513
351.5146862425611
351.46598654164023
351.46433966135214
351.5555818220789
351.5083765963142
351.50802588652715
351.459038498752
351.47864792870075
351.1852823096785
351.08586050085546
351.35283423770665
351.3174858093483
351.3490160968996
351.4526236634542
351.4112154213973
351.4220549826983
351.37762853889785
351.3814237665017
351.24453918345966
351.16825426354615
351.0807249039192
351.0641273972446
351.22515043185547
351.31633819904414
351.2776599756436
351.29710659353736
351.25080494773493
351.24266860032355
351.1608910224685
351.0950566205365
350.38742060117886
350.1518869066394
351.0145023704383
351.0218711632472
350.97245000107534
351.0299279290483
350.9756702634379
350.97382659223723
350.93256742034066
350.87498555299317
350.6491774947274
350.5996249118831
350.7388335299574
350.72811728932913
350.7061400825914
350.83680748584106
350.795046439788
350.7442019337947
350.67400067428525
350.903007652354
350.98325747837197
351.16641874100634
351.25258756930316
351.31693899255805
351.3908815167088
351.4088603652295
351.49646989255194
351.4884116658106
351.591595203851
351.5721191457351
351.69249309758885
351.70545905264163
351.63506751713663
351.59626328658754
351.54741107870575
351.4988070453
351.4542737226274
351.3918810522009
351.3512559015674
351.2548572789306
351.19367164973266
351.0359903915002
350.9423269636579
350.7551531297345
351.51027905316164
351.4888060707735
351.7182905076727
351.40933269255567
351.68005379748917
351.5825560460414
351.60227136832776
351.38318442016373
351.2947824468697
351.2366142371069
351.1139198585884
350.99185568126546
350.85591548330234
350.73752545667713
350.7133234806095
351.5728462391064
351.5546458077191
351.39521864801947
351.2046657892527
350.7783142229666
350.73299699857324
351.1902672281691
350.96000948415667
351.36789717110776
351.4859847499809
351.65465190861204
351.2045933259733
350.92717203653734
350.66867246788956
351.35552678578273
350.96617483793676
351.1310110440514
351.31048930044994
351.59401698607996
351.4742913437839
351.463742114187
351.3755147430894
351.70262201761113
351.56643327707627
350.70531313886477
351.02958520392434
351.5075907863457
351.6977514019345
351.22329359468773
351.37106817982107
350.7503752141442
351.3415038068657
351.145075847631
350.95746806717824
350.9271733038287
351.41334061871333
350.5755504206054
351.43414448213025
351.50156409045775
351.2307720048829
351.7210561303393
351.35853825176116
350.9246681539432
353.8928757150084
354.5526369880415
351.18722630828097
351.5557697637103
351.0612832219839
351.63323984263377
351.43603053708955
351.691501371875
351.24850075257575
351.76572919611357
351.738018777698
351.2806367814862
351.1101104810561
352.19553892792266
351.31876845972033
350.6261242977069
353.60677277502384
353.41441398141905
350.89065657379257
351.58040574536875
351.5017655264836
353.0901894772401
351.02898974884374
351.25929360152276
351.096910975899
352.66359954685953
352.1725264737762
351.5610127859851
351.3837574996651
350.9185475491516
352.5948131446001
351.4832159651802
351.57450088883735
350.98003282558903
352.9162685367432
351.6263758156285
350.9560613628637
351.7489081724832
351.1876973334395
351.7397257642703
351.7584264663992
351.40113515647516
351.1087733804886
352.0922045356907
351.75886602195015
351.0399832372721
351.43076545863204
351.84428843300435
352.48363834429483
351.5670942237141
351.74588949309845
352.6881342625562
352.07845271932496
352.4046559367129
352.2164460730261
351.94168348350195
352.1261375616835
353.94380337752614
353.94548342967835
354.0583030949201
354.0694682058064
353.9849730344768
353.98211754079506
354.13506424924594
354.1495130195703
354.1934993536801
354.21063529908713
354.175455542143
354.1621870914726
354.2654761645042
354.28392417239525
354.238309123944
354.2538520095583
354.27854430941153
354.263870636736
354.1896890068399
354.15481305177195
354.3510002765608
354.3435691570475
353.91758691042077
354.0707359656632
354.4721894923316
354.47954423679516
354.55121175255704
354.5619983148453
354.4950067024736
354.4930476639667
354.60983895353615
354.6240775778293
354.6556560783517
354.6731575543389
354.63432919868967
354.6256142090218
354.6852414522764
354.7041878551814
354.67398662456094
354.6913543929561
354.69700125890995
354.6853591772556
354.60699636656847
354.57604709362727
354.74772763882913
354.71854041889594
354.11952468247136
354.3419375371795
354.8912507825854
354.8907108752489
354.9824866965426
354.98704808895707
354.8954699074525
354.90058760958954
355.0451105189465
355.05383159520966
355.0888244598173
355.1022087594773
355.0496538313657
355.04789778930507
355.11798452149543
355.1314046079301
355.1127378478856
355.1251529705038
355.11410531979607
355.1087506129546
355.03519745909443
355.02108886886356
355.09952549100757
355.05239209809366
354.7391234464561
354.7448086850029
355.25934202621767
355.25530528286055
355.3526192877596
355.3570981117649
355.2458429412775
355.2601009224399
355.4141795309689
355.42147454193685
355.45667070079344
355.465625310291
355.4074609099522
355.4091605808316
355.48191999024056
355.4922652547281
355.4799834240371
355.4923501241543
355.4745827676706
355.46768591381806
355.41736569344283
355.41918011954454
355.404502508007
355.3241248897725
355.2830666862807
355.24082579131726
355.5739619072879
355.558084332128
355.6730277724794
355.6728548017076
355.5456771193268
355.5619887501051
355.7344734464354
355.7389478760618
355.7753241052818
355.7827473470465
355.7242623045147
355.72313102696694
355.8000098583702
355.8097825486077
355.80437149966355
355.8152015815248
355.7861782011928
355.78376089964667
355.7603098924294
355.76728578022124
355.6832733991079
355.59510866026244
355.6869129277966
355.6579949268876
355.8428388972666
355.8134333905331
355.95214253753716
355.94923014201106
355.79120886351427
355.81834999612744
356.01650522463655
356.01864774994056
356.05890609014347
356.06318987860294
355.9993984182548
356.0013670763682
356.08445425945285
356.09166220941694
356.09242627573605
356.1015343963303
356.0670953836118
356.0650065685556
356.5176014665833
356.51842022538057
356.5374365186654
356.5413388773146
356.39200616532383
356.4035563464814
356.4306239913661
356.41117861384055
356.49792592028797
356.4944455467777
356.0624775023874
356.0706351571194
355.96001132395196
355.8982273877505
356.01598517907047
355.9939350766626
355.9797962570455
355.8537735142074
356.2312690310683
356.20662642361873
356.29523152207895
356.1906784178066
356.29524992984955
356.2792447233318
356.32699351712796
356.32247326591624
356.3287125659586
356.338066451714
356.0766562451429
356.02299389906585
356.20087679765396
356.1937318711758
355.98510652962324
356.03062113715873
356.317125326406
356.31655112124474
356.29047515833344
356.2914056749225
356.3377573161127
356.34344028475454
356.24740601463986
356.25068579026095
356.1738916104959
356.1843455288744
356.2663471923743
356.2687479117006
354.269503876413
354.2568885490412
354.2306494613421
354.2175317447158
354.2397010963045
354.25796708161835
353.70263126632693
353.7564089544722
353.6599569617634
353.6577319626468
353.76136997383236
353.7369392952562
353.83962764221735
353.81857873992686
353.86195193343923
353.8426974086824
353.8228804581227
353.84512917339725
353.8439530938357
353.8245690907486
353.8077940199447
353.78685374336555
353.7963621691324
353.8178961040939
353.7559640725068
353.7331890121677
353.6747103625619
353.6535174684102
353.68556649531627
353.712686505985
353.5028085462788
353.5003776957552
353.2862887630637
353.3117088323816
353.44762570097475
353.4501955398151
353.4946986289933
353.4644046511747
353.536684730617
353.5071104878056
353.4685663842612
353.4959640559039
353.5319742944925
353.50626479705016
353.5064753795191
353.4831945315802
353.4794492938345
353.5050662750087
353.4657601592808
353.44301700674026
353.399761118166
353.3801486256787
353.4057350652761
353.42963194766895
353.2614161947439
353.2641304371873
352.4735018406235
353.0264814720388
353.2351271823524
353.2312534912903
353.1518228046224
353.1319612175385
353.22330928256486
353.1780083257708
353.1437253433609
353.17737727856553
353.16160010325086
353.1996457500237
353.15022173212463
353.19059894686967
353.23142906142067
353.1855003026576
353.59018862449574
353.61823569658065
353.75149554592974
353.7738628536948
353.82445333512544
353.84552564210094
353.7611565653939
353.7787128116448
354.1011022740405
354.0899744114651
354.17232085887645
354.158424403962
353.41471657949177
353.4258947251542
354.3600547886392
354.37110211027436
354.57433203765174
354.5684357062977
354.6787238888065
354.66829726232174
354.6365762252825
354.62086049566085
354.70903234927766
354.7409676085214
354.9874408212555
354.98746383946775
355.09263626253875
355.090002225314
355.08358742939487
355.0693190279896
354.9753131640349
355.05367044691087
355.3453256480104
355.35117069217284
355.45063751898783
355.44815537900246
355.461302345447
355.4475941266309
355.1024947095632
355.2551208172292
355.66104899073395
355.6639208050476
353.4883423370336
353.51507032801044
355.7639485240454
355.7621536789178
355.78329522482557
355.7761036766517
356.0415322200728
356.041282028368
354.8700903427783
355.27422358815517
355.9316604866572
355.93934957646496
356.07211051824027
356.065320972206
356.3085852082843
356.31411244625997
356.3501156443748
356.35655709036547
355.27569504229285
355.26108336481286
356.1175385227078
356.1952548898563
356.47210073016817
356.4762864832182
353.4510112945484
353.475976361411
353.33843735561015
353.3569704707005
353.14783948458387
353.1384452702272
353.2360099558783
353.2051553397561
353.1776958342581
353.2113925879924
353.2356217065906
353.1979676035412
355.0925951089668
354.1408433322268
353.4359213799333
353.4407520514383
353.38909014864316
352.58998405328396
352.76434042223735
352.6250115000746
353.40497275477907
353.34149495492846
353.0318459128639
353.2652323255693
353.11031112205956
353.21349245629784
353.0563147829156
353.4184973541386
353.5418832032321
353.4105402483336
352.994722275406
353.3698793889823
353.4096690155071
353.3808722883646
353.28578357500265
352.88035242910684
353.2962189460936
353.0391204690961
353.0115667173799
353.12433401235637
353.35575283220004
353.3057499152932
353.1527438135488
352.61003776644236
353.12913045788673
352.4749725524173
353.2364670267926
353.3296671427081
353.27309468010975
353.0907083815283
353.18743179568867
352.8902748549761
352.7495821815876
352.9269623039741
353.27686172153744
353.00677675516164
353.1050966237158
353.027624650164
353.2166740547584
353.0099904787557
352.6923097832805
353.15748708194496
353.0867340039658
352.95792704826306
352.2737381858651
352.6131642627543
352.61295134007537
352.87228513661813
352.87026442970483
352.53674075491443
352.9670226914279
352.33984875624844
352.79242516136185
352.72962113245177
352.55017587088145
356.002926322329
356.0165376453984
355.99539115587976
355.9106271941197
355.7401120034397
355.7268848578267
355.70543459902956
355.6270374548427
355.4557827577025
355.3990800033987
355.3918147010245
355.30295244585903
355.1266100854168
355.03541799711996
355.0209603980699
354.9530867866125
354.76639572332533
354.60337518237543
354.58441641136494
354.5058687771725
354.35063703052367
354.1746240925395
354.1782308404818
354.0897831248795
353.94398472944306
353.71804069455067
353.761238261963
353.69726270854756
353.414127357932
352.76717805698814
350.84886292396453
350.8559008654611
351.149057171076
351.2169828068185
351.3971887366099
351.37505802827945
351.53366879373937
351.50196496232695
351.6509075098402
351.6581214148603
351.750714847936
351.77860150672603
351.85481034216747
351.8889690278821
356.4191469142998
356.25869321954536
356.2776075827931
356.24448098876115
356.16199989840567
355.4093419516448
356.3430552609389
356.44342145667815
355.02464220508085
355.2305341767137
355.0474672588712
353.21968234845895
354.9811688388201
354.86827039709925
350.3713333507415
351.0711407575035
351.15593346815444
354.1924027092556
350.86292548260064
351.3416163187858
355.6980770484426
355.83773584136964
354.23131700973295
355.72484645739127
355.9639710486179
356.27347059957594
356.2530970663421
355.3538325994656
354.4434149258405
351.39611846738586
354.54804714815975
355.67413762191967
353.7400192719273
353.74779320344106
356.0112397671741
353.8204140949883
355.9922771235709
354.60805555949247
351.47077599625896
351.53993143976936
353.6418001341672
356.0927708876354
356.20663410624707
355.55779800361626
354.02993881256197
351.58724094684226
354.6439215313142
351.7861248935415
351.88259868209747
354.1365453589943
355.37625803192344
351.7798113323073
351.67258117446727
351.689181764739
353.5220235593727
352.66871585766154
355.3071939516875
351.5699114504733
354.2190676129407
351.92985942446325
354.8703451594298
356.1032089823919
355.30831952274156
351.6270283714139
354.1456582983529
356.0645566345723
354.8175753105301
351.9201318908177
353.44253300701035
356.1907676824287
355.14966688093585
351.36558181284454
353.99259048641545
351.76418791855497
351.80173101770015
355.5328204169518
355.4293967475354
354.4765037713692
353.8206140475524
354.1014806906742
355.67276011389544
351.15174358699414
351.4734553964874
353.6120065810219
355.59293026678654
355.33188187090553
355.8832663608541
355.77028813643744
355.94255518040825
355.9840820955591
354.40685468659365
353.69503784853913
351.87511127265634
353.55994095856465
351.6831896227738
355.202778601966
356.1812150288848
355.714369216269
355.83066469662606
351.3319767994474
355.90742233949845
354.30931956047095
356.15011748235094
356.0473481175896
355.942711172526
354.5247402635376
355.56682136174123
355.62735345908396
355.0784198629345
355.4869309268772
355.66361535578744
354.4350173166793
355.37026476748997
354.04336752901304
354.3905874118121
353.7382640090619
351.43401834050735
351.79751931630716
354.1076635791453
353.67002987389424
351.1235003775109
353.9008063685173
353.97121801872015
354.9256618123821
351.92004996084285
353.6786102963523
351.5247143578572
356.23584673519116
353.28089722126674
355.2518515661164
352.880418671479
353.0236849257307
354.710649671846
352.06967772310594
350.91508400435885
352.0429516614634
354.9702225882217
354.6653835521059
356.3128630689923
354.9734548363472
355.88447678533134
354.5777974026026
351.6927222251488
350.9402944409006
351.9936878105678
350.99006699770376
352.06179370561625
355.00640056702576
351.6039505375899
352.06268941334724
355.7418720424161
351.9731958731874
355.81369402673687
353.5469019393704
356.1949647410258
354.6529975848673
354.7496999754751
354.5867329316046
351.85316952209564
355.2050409808084
354.29338800804055
355.42305092609627
352.143702929515
351.44344367065423
352.4822739093639
352.97227307282844
355.37151319445206
353.866122249633
355.29568980605814
353.63646951965563
351.1960036144095
356.0845074613529
355.15397534757614
354.3673281725472
351.58254515761314
355.46813832363864
355.3576174199862
353.9617825289304
354.261440628926
352.134955160661
355.42684129179287
353.69681351522695
351.2980141874262
355.2708602152454
353.61436892422324
351.7049753542554
356.05142826600036
351.9582704216305
353.8278334442176
351.9210836889034
353.16053451628306
352.27799211840636
352.7687871724846
355.7285316735987
355.84274608849233
355.55323311105815
356.0717425285489
354.27108826060515
355.9025612456046
355.6026796992314
351.6412225835427
354.0714993355132
354.9135876880534
355.03046906677
352.434679666132
352.1526673469247
351.22983976751016
355.5947696448654
352.27982941610935
354.98517344166765
354.1577274644501
351.70006977860436
355.06403989128404
354.85945217683275
354.0100809257128
355.9286684829734
356.13807069007953
354.85880674128316
354.52334051945604
355.69353874091763
352.2624697987178
354.4721546168806
351.9885242665049
352.5294082469205
351.0630240982014
353.7782820674267
355.9824552367054
351.8114021329481
354.3816275332072
354.45963376329513
352.3054440316848
352.884662262605
353.3316788330129
355.20883790920243
355.1200971842938
351.8788010344051
351.75314915674113
353.6231175694912
355.5682337794576
353.53791810768877
354.8673936301962
352.42173839882736
351.75428902974386
351.6047453139974
355.6745943099431
353.4972740937364
353.70779487711735
354.3359516046135
355.48102532300817
355.0014169594253
354.80496167887986
352.2112258174222
352.1704454792131
352.3611174578741
352.0077101764497
351.831718420484
352.49419317646135
355.1826089604
354.12377932358083
355.67807767552654
355.3309424423464
353.8838879610476
354.7848299180857
352.07440421903596
351.8887195418606
353.0972423970127
350.65307671885813
354.03626591985807
353.84173322250786
355.4477474537873
355.6906594407969
354.90622590506365
354.71678734103045
352.087532180925
353.96034220815085
352.1512645939072
352.0222004931477
352.5533062048132
355.5181534802514
354.2763178626385
355.2210935998951
351.4008226604027
351.3165867637742
355.8292883862841
353.1680636268956
353.62034113366764
354.63974791692357
353.0139783076176
351.7810592846942
351.33073343782956
351.3171532998547
351.28478030384656
351.645234713194
351.208515332435
352.5580578856296
351.88546153182705
352.7385867707385
352.04904405400293
355.75806091875944
354.07980804300036
352.98493038683955
352.34298562243526
352.77586673845843
353.3907454654373
352.7002290833622
352.2420740789797
354.07290090531353
354.9297594327206
355.1118064456557
353.7531798092698
354.6837325777047
352.0145049342447
355.44743277801024
353.84097991068745
352.5144268319424
352.4941158755947
352.3778239738151
351.20728109887494
351.24503349198886
351.395007666808
355.3519442444344
349.83854864146394
353.6257484058946
354.07745055244345
355.42448713286063
353.5015686198428
354.8906439243194
353.39398062391194
351.8723979850155
352.14859798212365
352.62450582089457
353.4316409691931
353.9521836648196
354.91875152316385
354.22026199599435
352.7753521214792
355.12767827231
354.46755353960793
353.50653428098246
355.0139402286468
352.46339283145113
352.25586571539657
353.32559277912003
354.406990671633
353.74838161107976
354.52521202602964
355.1967390064345
354.58409338705826
352.6693911179503
353.4962614422702
352.3495975429316
353.2565747925372
353.86450641110395
353.2332647023799
355.2401400896554
355.07142884058356
353.9140861652996
353.42620455424424
352.48684043105203
355.15568687483
353.7823508061999
354.9972326126458
353.0926343051056
353.12988116632937
354.6403206534914
353.62681765354426
354.16077924117724
354.3928179885124
355.07439380218193
352.5589253542162
352.09825647994717
353.4818481426467
354.3092141501537
354.7123993931116
354.3703522498403
352.7644938000172
354.72795623130935
354.6861983971951
352.6582657978656
354.84190543696695
354.6956342116597
352.8280888378771
352.8474048498228
354.7337735074719
353.4925573603571
354.80692998912286
354.29692910309734
353.6015347692467
353.8033778488095
354.37061995156256
353.46217645425804
354.5524141280481
353.8015507951124
353.3510385188253
354.0792761298225
352.8945701282676
354.0099500095525
353.20169142077543
354.7433019558469
353.2586636565764
354.47975766727376
354.34730314223896
353.0590630895814
353.33076676204206
354.3935582767271
354.1574777337605
354.12609335203297
353.53069149156664
353.8927234958483
353.24378787912894
353.4574104097488
353.8021068496335
353.9653269071559
353.70300106228234
353.52308804268006
353.6555024463525
353.16047762087175
353.20148445807524
353.1645285368097
353.1256448934205
353.27853896238963
353.2245826639085
353.195634803741
353.32104633369266
353.34582982605815
353.33607962178723
353.25579152282415
353.5239986120301
353.6008201247731
353.62436508086785
353.58444073347204
353.8126995464422
353.8988879600317
353.93006827863627
353.8546737598246
354.1270332566872
354.2726558919406
354.344855092545
354.2800332311809
354.50957875012324
354.6660216481485
354.76012818391916
357.9830585810212
354.69922958715983
355.0058079204202
355.1283286264094
355.17409376226146
355.07403898388986
355.35764268623683
355.48621759985895
355.54777934226246
355.44967550068196
355.68589604226014
355.8114505903418
355.8482520812369
355.7688242382495
355.9464182718496
356.0840484217735
356.1352461946881
356.07655268201876
356.1853545006342
356.33194043246317
356.3837243223531
356.34940956302637
356.41589664325716
356.5570317643655
353.3542111832602
353.2081235485052
353.438443840051
355.52759534699084
355.52536785125244
353.22788606791175
353.1854580716858
353.327851063689
356.36327747946615
356.389828848664
355.5577319156846
356.2839242294733
354.904758568454
355.07894918090216
355.7636441920455
354.7603307761968
354.74568379707404
355.42946816554706
356.50383159557316
353.33055092713164
354.72290427830177
353.5779431999419
353.72243195457236
356.2774774766193
354.2105875829897
354.3161110443294
353.9991697577291
356.11550208409614
356.1357138823648
356.04092736685885
353.56875387774403
355.24444337305283
354.3433520520281
353.8976056856039
353.86501903107694
356.0306583623779
355.83586930487405
353.6253027997194
353.92443216510287
355.16193579546194
354.59485836136594
354.379232334397
355.81186823581936
355.8387874586529
355.1295510029436
357.60714569989534
354.9622203898838
353.3568857137134
353.2122649341764
353.30068675202244
353.5705150489506
353.40065596224304
355.4169716959954
353.7768731982468
353.50532822486514
357.6312645252542
353.62516081081606
356.43641545761426
355.94649427803114
355.58803507761496
356.23927621801806
355.6661794576328
353.4284966977848
353.73542494271163
353.98767217713714
355.88666167246095
353.5242391673379
356.53314320845425
355.98329371739567
356.33341535341793
356.4991722559777
354.78161205197176
356.14762393483113
355.28282157104076
354.1241031616004
356.2552566282258
356.6101591528515
354.27569730001665
355.74846162782904
354.48819643691604
354.3930304590641
353.9164399875584
354.8733797314331
355.19017861664224
357.0866380279851
356.6656209856981
353.2607394161574
353.3754673800927
353.46975058935675
353.677003748304
353.7672487707609
356.39692003962364
355.34130825885404
356.50404864029775
355.82647733873563
356.5853447004349
353.4543243976361
355.9687004465526
355.91595346503465
356.4808241244809
353.9687882767655
355.913045175448
355.6719140060916
356.25468169111394
356.0825854829317
355.5293218063972
354.0067420434238
356.25800836879563
354.53480460851273
354.83860456520597
355.6352478204639
355.6638933125074
356.18909024211126
354.7084917976973
356.001026606088
353.5232765680287
353.8396956985764
354.4577061732906
354.4112515435008
354.86819155134526
354.33996101879325
355.1267269128045
354.2012959806397
353.53424274720055
353.5248562593106
356.1997817264766
354.07407843090766
355.2729026158042
355.21498024022355
353.5497651060743
353.48273437104564
355.4617246142294
353.4763505540392
357.3439843357357
354.9971533044908
354.0366681223515
357.85195458470116
353.6843041623012
356.444941589633
353.75842758209075
354.59459257475396
355.25997087956637
354.92490196736014
355.0454132022063
354.03174535584077
353.9306475073232
356.51171526103025
353.88975412624063
356.45807006929647
354.63057732755016
353.3892027977481
356.7839754860598
356.6222803904071
355.94869468610517
354.0833140846705
355.75352526820114
355.4905889668303
354.3544150967839
356.3615249182023
356.0655037439254
356.676032801955
354.96105214403497
354.46836162389565
354.2472086484752
357.0555946784487
354.82402251384883
355.24702572058396
356.55557136639214
356.7174770061142
356.5896416574431
355.79707927961226
356.01560907148286
354.0230137923112
354.5653008811237
355.6926844597899
355.4247172151358
354.27696313762823
356.62644252620066
356.10914963565875
356.3904852983235
355.88263037330785
354.11377834135635
354.90223139524835
354.3957572753532
355.00580338436055
355.31102290921893
355.553514485961
356.2991968969656
354.52167230051305
356.5423017195652
353.94540320821045
356.00245857052107
357.30664368467706
356.82855507987875
353.7271729648581
353.5446292436737
356.1173723230954
353.82866791669454
353.62808169099355
353.7026821516393
354.634472233797
353.6538026242369
355.378886630847
354.1203122107654
355.0925297815595
356.38028109044575
354.06049318333055
353.55764408112896
355.3460468866397
355.6311767501121
353.6757097308483
354.7157779820189
353.7706548786127
353.68109972719714
353.61087538789405
354.58458160753696
355.7970846072131
353.80356268265155
354.1753919011377
354.726275774081
355.1570260208776
356.20575382810785
356.26036075015145
354.4149259534926
357.6517368279142
353.7131228203895
356.7505708615115
354.18919493633655
355.8777658887838
356.42591135303115
356.8479404110764
355.0272967540709
353.7053347610825
356.5599378161939
356.7470036905351
353.8515182686443
356.70767950515983
354.6068396211396
353.6147712906304
354.23426648001123
355.7912425063709
356.90342178441574
356.3546128653965
355.0747687992764
356.78797629865005
354.9422681329277
356.52126469957994
356.4939919927475
353.7995390146462
356.94053543982614
354.356346931554
354.5079569714018
356.4892515428574
356.1153164879894
356.25018827993796
355.6759050569163
356.0461492840227
353.92254517649894
354.0605995278586
355.2836666764202
355.15880285286954
355.71764699197024
355.986278131825
354.84504084457814
353.9875837319367
353.8472420256454
353.8780404787558
354.67281236283935
354.1070118170233
355.2379663208798
356.6272166932302
355.6133410994725
356.1942092238151
355.9348094990232
355.3633055153517
355.8018821448935
357.6961193992547
354.11791315262735
356.2152822724594
357.8356189965965
354.7498853900125
353.93566083519045
355.5141615709509
353.7203099092225
355.5426410271833
354.69658497591877
356.1155294922628
356.64703679855614
353.8691676988582
356.2166029047418
355.45005331015324
353.8432775364824
354.27922385639573
356.3218655336128
353.7649533006254
357.12706638995394
356.55832251218845
354.5837652535666
356.79938317424404
354.87732547626166
356.34998227334626
356.01797490584823
353.9764155586922
354.85344623601605
356.3388964793416
356.9028044973661
354.5041932825593
354.59249083970843
355.87231106813124
356.18617891711597
356.5811266642419
356.2567451014005
356.0056351875876
355.0293471876586
354.2847963882549
355.2991577657977
354.0319060721186
354.95565965490937
354.77079440499716
355.36453992196135
354.38834663478036
355.1791361892828
353.96040931938154
357.3795675800856
356.0959319933477
356.0806211243286
354.290968309342
356.8412726285233
356.7336591891622
356.235755532389
356.63425756006944
354.08958101213153
355.7489032868933
355.96107296326863
357.52876721137625
354.25412432449656
356.383959719423
355.4493404633427
354.11995194818047
357.6163987600809
355.96296473003173
353.89797191488833
354.1143984051665
355.5937627619736
356.64239354267005
356.0215398755318
356.3265419974103
354.481641949839
355.7240662323757
354.0581106230365
354.81812457765625
355.44957479671484
355.62445873562945
356.74591817828406
354.6521154365022
357.15366984318456
356.05671629463086
355.6361167790015
354.74784736525805
357.06887004488584
356.1839081932884
355.85375309933715
355.22835366926165
354.9772249610974
356.2402546652721
356.99540883079163
356.1894014718874
356.30838674737544
355.3395484655204
357.64617997747354
354.92754169811747
355.835178692087
355.9997967593498
354.02255133903475
356.3990885457727
355.0427707403996
357.0752568817434
355.3120654581302
357.3811229344073
355.5951337654325
354.44609273514345
356.5212008819231
354.3767215776603
355.49323679360134
356.3813518703635
354.5785667459993
356.7255034255516
355.9484315398392
356.8612541538092
356.2256740525403
357.2574601210564
354.5247554462122
355.5610527884801
354.43531452406864
356.61569106451435
354.65517944762735
356.447256011502
355.44717463225305
356.87069325098713
355.66198523150683
354.305074925977
354.16458795363206
356.78234910819464
354.9964982502688
354.2036201771088
355.76399428808554
355.6199329674427
354.9392879482618
355.6916841242282
356.5298469248593
357.42338753068543
356.2501886783837
357.12151294244376
355.48912060771147
354.31483978478224
354.194465110053
356.3868111513598
357.2538604249594
355.34306942794973
356.1099626992034
357.0004303940318
354.8649062022802
357.13850682567585
356.81434024101446
356.04431962472125
355.0436955520652
354.66525479664364
354.78670536518723
356.8088190122734
357.0616070232727
357.18440569734355
356.87571908767796
355.26586652181487
356.7125752646934
354.6948698801404