
FoamFile
{
    version     2.0;
    format      ascii;
    class       volScalarField;
    object      T;
}
// * * * * * * * * * * * * * * * * * * * * * * * * * * * * * * * * * * * * * //

dimensions      [0 0 0 1 0 0 0];

internalField   uniform 300;

boundaryField
{
    inlet
    {
        type            fixedValue;
        value           uniform 330;
    }

    outlet
    {
        type            fixedValue;
        value           uniform 300;
    }

    wall
    {
        type            fixedValue;
        value           nonuniform List<scalar>
36979
(
353.90032902622255
353.63997651131484
354.12144078934716
354.0100815677738
354.56109352605097
354.94946069290773
353.9603027375861
352.32907602672265
350.96369705157326
352.0601559819356
350.3135803094382
350.3365733356277
350.2883212942675
350.1457470026654
350.1581795924628
350.4099676358848
350.3777984878859
350.3294851891324
350.47230925907877
350.42333668455626
350.48527707111685
356.06057640117683
358.9044847372337
351.8559218835127
355.4591668388028
350.49806804310634
350.4526762842526
358.111788412939
357.75599709630467
356.6308554538383
351.14051715760746
356.3234187841952
357.2238112818537
357.11657846275136
350.33511518327106
350.28568349044656
350.2705334141866
350.2205835856421
350.2679190576451
350.00520209999405
350.0066723690481
350.1786966389862
350.1352506825721
350.16754703250336
350.20720718751573
350.1599493424189
350.16127803383426
350.113262267307
350.139604698408
349.9653742516224
349.93193455713435
349.9852345005345
349.9611376002473
350.0256612075896
350.06992253253867
350.0283134846993
350.038277054443
349.9943290582458
350.005733796521
349.91032744561403
349.85959213124636
349.7400189578651
349.7328539029571
349.8754242299124
349.90234117299605
349.8623729479612
349.87910203164694
349.83171534654457
349.83303772493633
349.76419013861545
349.7054836152666
349.3813302395568
349.320387748701
349.645831311606
349.5970405951828
349.5519116910288
349.5950648044365
349.5429343527534
349.5509572327859
349.49715292381813
349.4438754451045
349.1824132577766
349.1624078340283
349.3337230940465
349.1877763969048
349.1983197895619
349.335469479714
349.2971225753918
349.2636954656245
349.232029764916
349.4762248024851
349.5837943049549
349.7621727502737
349.8590550884484
349.9491583337447
350.0262877740056
350.08139635682807
350.16621074303316
350.20576503203665
350.3035762932936
350.34122977035435
350.46063903488266
350.50648657713276
350.40624856417384
350.3292937916603
350.25642477671823
350.1822202268674
350.118728938001
350.0371236087277
349.9776548098603
349.867831939549
349.7847459360776
349.62793195977815
349.5125664477801
349.31954292852623
350.21059840883174
350.15894282830783
350.5405855195415
350.0688541259347
350.46395182766787
350.30019900428863
350.3565343768393
350.01505192417494
349.9194088743844
349.83358786359065
349.7082905229361
349.5703199090888
349.425581914125
349.2693765781327
349.2270012079236
350.32857657411125
350.3500201995947
350.0674038324996
349.7898378092276
349.35524648610556
349.2394575060923
349.83130525453277
349.5473701297942
349.993847689662
350.1618032700243
350.45268117946193
349.8098314134008
349.4823277059908
349.22719481134845
350.01328969491834
349.53029802990835
349.72014170845006
349.93745223002526
350.32364105216743
350.1409069164717
350.1665858255025
350.0122683846203
350.51403774262434
350.28453644522307
349.19517588787
349.6306222538776
350.2244108224365
350.5380984310773
349.8487368733531
349.97980715967395
349.21160084006135
349.97364119994893
349.72683645278426
349.49336916210365
349.5381287751211
350.10922110799027
349.14747246999195
350.0984862876314
350.1572584103449
349.9357599164843
350.5367310532501
350.12382160117033
349.4503070261432
351.932058626121
352.48639254496646
349.74815877043056
350.2786290647225
349.6915313851847
350.350260970213
350.00319762071297
350.53886790392596
349.21119387815696
349.5326597267529
349.71665742218795
349.78856814564017
349.6414061674852
350.056666735675
349.89740840642065
349.06683031134594
351.5637220161745
351.5823866145386
349.31649206315126
350.2028838464804
349.61580680453613
351.1558816944562
349.50245864066784
349.8726560150079
349.839556470281
350.62340548063025
350.2405611949828
350.26959302841794
349.828513203449
349.4039460228569
350.75498769387207
349.9430895023701
350.1148495854597
349.3364593128943
351.1783319608449
350.2050133608847
349.3412821706834
350.33387796241453
349.6185312050886
349.9356793399404
350.4004710474947
350.25272593663095
349.41525715965236
350.3646197838042
350.1306968390185
349.422266648638
349.729751250331
350.289621089536
350.8204397106742
349.9268214908902
350.22474050203977
351.12178828888307
350.6373200354805
350.95516123373227
350.6883027129199
350.4671614119709
350.553457759927
351.897955063492
351.9037994078702
352.019916083679
352.0289505447975
351.9462786942498
351.94078497647814
352.1160907135774
352.12734861482505
352.19485186404665
352.2083572770308
352.1636067500836
352.15115072627947
352.30856034021474
352.3225974095493
352.32969168302185
352.3412244865869
352.32669588096917
352.3164714250599
352.36377050595354
352.3627532845808
352.47797954649013
352.4773810494703
352.3067070258447
352.3400941862528
352.5916214119723
352.59596517684577
352.6818317308786
352.6885315521254
352.6139577500349
352.6145853186142
352.7548140463763
352.7644272832549
352.81537900808127
352.8274977904824
352.77893399676356
352.77370920380025
352.8620970754351
352.8746337892907
352.8860137673132
352.8952406356187
352.87023797097083
352.86457060791406
352.90710817699767
352.8990442270349
353.00814308355694
352.9946440872459
352.786349453291
352.8391672753815
353.12854270785215
353.1246490811267
353.22526711016127
353.2249160413892
353.1256976323477
353.1353794940468
353.29920927341595
353.3030040775347
353.3568729977787
353.36442763587695
353.30100807026895
353.3035816229827
353.4018150206239
353.4086981854503
353.4237847246193
353.42805452614124
353.39144346325475
353.3926254366147
353.425899830266
353.4180037657025
353.49062733113084
353.4728624182689
353.2863095635706
353.33166002351527
353.60676347172915
353.59970956412747
353.70108273076534
353.6992348425454
353.5793885796254
353.6001435668668
353.7728356511042
353.77334015964425
353.82785749376905
353.8297934490949
353.75840705535074
353.76595560701617
353.8671836681742
353.87014922483786
353.8860654988819
353.88920260557785
353.84892100810913
353.8498213385389
353.8820683550872
353.8757393355214
353.91646070335185
353.8880882113415
353.76136442478725
353.7853050377831
354.0239062992224
354.00774545796344
354.11735168741706
354.11108097662054
353.9731850497217
353.9994391955619
354.18666142584647
354.1846166388607
354.2384297789236
354.23894696309185
354.1656495147482
354.1716307708585
354.27545289298126
354.2776554046482
354.2957834109079
354.29769277272067
354.24945579822435
354.25404957142126
354.2920045900428
354.28719641287006
354.2970974669171
354.2668932776286
354.19586351756965
354.20752550768384
354.38664633402817
354.36391589629795
354.47929983177403
354.4702754034016
354.3063182993703
354.34489506163277
354.54756858610153
354.543075271195
354.5975701304778
354.595311779809
354.51688912604664
354.526201447406
354.6321974358008
354.6324408247454
354.65165848804594
354.6527820833198
354.6012555819316
354.6063716592519
355.14008143759935
355.14698073423216
355.1734821302185
355.1715228462148
355.0064419232339
355.02778694276145
355.0686565888912
355.047482893653
355.1311423748949
355.1223276919674
354.6482913617825
354.64553383987476
354.63344821208227
354.60665308977406
354.5726189919519
354.576573744838
354.7160845907119
354.77661248645865
354.93376353454795
354.91474710656
354.97898945592743
354.93567844461006
354.8968304473719
354.89800165808185
354.9206539863997
354.9241108341842
354.95742668417245
354.9566066320721
354.69986462953915
354.6689648264779
354.79172145404095
354.7795832878625
354.5773650709983
354.6355984483093
354.9053444051382
354.91135115291456
354.87255948743064
354.8800877055829
354.939652715431
354.93887026097576
354.8227566101512
354.8332860431364
354.7432026873838
354.76280147861775
354.8570535268685
354.852953980432
352.29515067137595
352.28433588281206
352.23796814899947
352.22603626712777
352.260483235484
352.2748593475115
351.77167181960505
351.7810765047506
351.6905664237364
351.68500711927356
351.7576503402969
351.76305045643034
351.7238080595639
351.7031768399755
351.71338338172853
351.69141555942105
351.6872510800862
351.7085552258865
351.6733307442242
351.65044264340554
351.61555142608415
351.5904473107047
351.6096872528416
351.63041666634143
351.54210212272324
351.51412423867333
351.44526419764804
351.4169388151953
351.451132305407
351.4801996448986
351.3101406697039
351.2870986365195
351.19002938487284
351.168067695687
351.2237474165001
351.2455008847546
351.1978160820677
351.15930812795636
351.19477219495633
351.1542334687075
351.12344892489415
351.1562628489007
351.166024375276
351.1289524629785
351.11970105758644
351.08496083942566
351.07578877483263
351.10785252757023
351.058120374408
351.0228621318526
350.9732666350059
350.93889220554354
350.9552975753983
350.98746564595876
350.8424786309166
350.81919953072065
350.6175757213873
350.6593126080197
350.74875929444966
350.7728092591735
350.66423031911637
350.6287667296253
350.6849083205394
350.6243079061628
350.5811221776327
350.6287039128182
350.5284841087131
350.57767439085893
350.5516636933465
350.60342572858826
350.6616256143644
350.6005287305957
351.341006730572
351.3738212955157
351.54149718419103
351.56360443005514
351.6601034037792
351.6804524143983
351.6946123474619
351.71301843309277
352.07023913268915
352.0593244492351
352.3022980742011
352.3029394528192
351.14698018235424
351.1702583531943
352.48686872320343
352.49632957526813
352.70536499405017
352.7025760793988
352.83664804021436
352.8301995615033
352.8522431265068
352.85444011508474
352.96957501905666
352.9979919988356
353.22652189290505
353.230902972205
353.3566661596881
353.35871495725195
353.38481438209357
353.3870339414973
353.3935975983373
353.4502280635247
353.6849693650615
353.6966690739781
353.8132392725327
353.81724346962676
353.8504934873907
353.8503961641621
353.7464253175659
353.8296565876583
354.09163330837924
354.1025455459804
351.10718353384163
351.1403122983123
354.2165758508331
354.2214264962975
354.25734337372984
354.2606344680439
354.5676836763725
354.57440824267985
354.053208676629
354.16462148228845
354.44093648964144
354.45706981942055
354.6136670009968
354.61632370773214
354.9043820551158
354.90332932855756
354.9601323192057
354.9595284808045
354.3611512903862
354.46964551066264
354.793265774243
354.88145031960914
355.09000948919766
355.1009177731063
351.025224738031
351.05706437605585
350.8640925799695
350.8945598977664
350.63899793554924
350.66607844707437
350.59249949181344
350.5402668792027
350.4998980494253
350.54753007846114
350.6301017033104
350.5747105874406
353.24997493337884
351.5667418210406
350.43565061622394
351.1824041433509
351.06170326743126
350.5431217594684
350.64075767110666
350.47173991503035
351.01192322250574
350.9015875573469
350.8699410578246
351.0548628123577
350.8700620928112
350.71668285994787
350.49789009264316
351.178153896948
351.2943706120994
351.1357403479466
350.40375377692914
351.11199822818986
351.0399717732954
350.9662153213053
350.8171581050832
350.67735419180553
351.019594543067
350.38997213034764
350.43454800117223
350.6000322587458
351.04413487057155
350.93094983823096
350.85446002217327
350.3687778613812
350.63784492149335
350.1586550770572
350.81358869122874
350.9779300815487
350.87645974229196
350.56638687390944
350.733487869611
350.321499361299
350.1982211117996
350.6574468898093
350.95488822303656
350.4497911721025
350.70865269321325
350.7035788422764
350.8735276421179
350.54598788170364
350.097835528025
350.79026074108145
350.6577759234772
350.4352848560842
349.8823650750834
350.3528648265994
349.92998334608535
350.30603579881796
350.4723264453804
350.1444176178266
350.6107680562674
349.9215967491182
350.31861033586097
350.17798753834285
350.05969015938905
354.61947328962685
354.5946651037204
354.5521220698259
354.45300117371175
354.29189679109265
354.2412708889297
354.1909259605453
354.08989766895263
353.9191621308867
353.8305201681601
353.78703095602145
353.67412136930665
353.4881821104609
353.3713744668597
353.3129744098389
353.2135577723813
353.0155594580383
352.8391001287106
352.76887391813966
352.65743561939735
352.477854964783
352.2819093608597
352.2221702767649
352.0935280474581
351.90571061157135
351.65628211591917
351.614518450831
351.50687276901675
351.2232545058846
350.79049148387924
349.36164466866234
349.46958778626464
349.73030885479375
349.83800690840997
349.99804319758755
350.029638349259
350.1642320911164
350.17929435279825
350.31657837917777
350.35528159589813
350.45502477502293
350.5071413228268
350.6041139339334
350.65854093196486
355.05983434486166
354.9170481882375
354.90347793629206
354.856190489625
354.763109801744
353.81832303584594
354.9892920643352
355.08818223740565
353.39573251617014
353.59211867193557
353.3552264343739
351.0842324682592
353.25745734715605
353.12296340026614
348.89970279212724
349.64497111422696
349.76405885842496
352.2597472766116
349.37654335263665
349.9416779896924
354.24584778885566
354.3774484261114
352.35879383455216
354.22282193765415
354.51248792444795
354.8904325666187
354.89751566699204
353.73725440333845
352.5805985399664
350.0156483254218
352.71622897554516
354.1475815160881
351.57203608525396
351.63163828510415
354.5777284671307
351.7713499718754
354.59440840645476
352.8108997614554
350.10433332412305
350.1813112293491
351.4243316720323
354.69529003046364
354.8128890767841
354.0139773994287
352.0120851827962
350.26009386903473
352.9030101944536
350.5360948443384
350.6380018081099
352.1615050011732
353.84553123704603
350.4904900495423
350.345834781858
350.39979740534335
351.3027072220969
350.5919593658944
353.7299991885379
350.2128477384527
352.3555826323638
350.6542485708795
353.18150977680955
354.73246950771613
353.7464813404447
350.27332222876737
352.2614974754342
354.68716879339945
353.10593804326487
350.63706959005435
351.29728957148006
354.8430388909062
353.5421222816189
349.98019656209544
352.0288476760361
350.44414703427867
350.48997443261214
354.0242705797667
353.90059437294684
352.69582057733135
351.78425924498646
352.1722634805511
354.2169741662046
349.72231963347036
350.09191270279734
351.45156562722946
354.1095569488521
353.7834272308956
354.465385888292
354.3312028354199
354.53821001186884
354.5971354740254
352.5881510429068
351.5961391263166
350.57912346275805
351.3717092526606
350.34214488672797
353.60888342326547
354.824752875561
354.26776669338767
354.39748778466014
349.9449402635797
354.4987523322492
352.4614576729357
354.78291495687074
354.6612224217604
354.54914761471355
352.7582115395996
354.07047089422707
354.15394777259473
353.45884129537455
353.96744260257594
354.19608410490247
352.63721867352643
353.833238411489
352.10227768102044
352.55170208413756
351.67106188424066
350.04892427510714
350.48259385401957
352.2001659649685
351.524757460963
349.7100669296019
351.8922430551668
351.98126264213147
353.25051807090745
350.64670171849053
351.5540700070541
350.15378559284034
354.8924385698732
351.20716062327546
353.67017028096353
350.97069767759774
351.0263604794197
352.98428226327326
350.84450690414496
349.47413052851596
350.79757650307664
353.3210953257209
353.0058487607037
354.96969302555743
353.30568250266697
354.45440558238545
352.8259859083772
350.35943750547324
349.47566441466336
350.7347715228231
349.5849971214394
350.8392616502378
353.37418953991715
350.24889928298836
350.8294581550701
354.3551763886905
350.6861850586313
354.43306975010654
351.4289215797612
354.82863604394066
352.9100408161447
353.10620332000826
352.9052011534852
350.6009640049376
353.67821328721385
352.53802813070644
353.96188957475033
350.89685990835414
350.11720293213483
350.78814981187975
351.1539920918435
353.88498384936867
351.948712923334
353.7874758220218
351.5725569048034
350.0619454159965
354.7598511957342
353.61148643597454
352.6286174437587
350.23100823790054
354.02046351867824
353.85527210135405
352.06447221600416
352.4804428471004
350.87824605492943
353.94761407574714
351.6716572835953
349.94663608113507
353.7480481142618
351.51801243397824
350.38197747340297
354.71875928089486
350.7507736598178
351.8677878613991
350.6236918272084
351.2305667168446
350.6486938838722
351.09293916959126
354.32522636799627
354.47487209416533
354.1108067069905
354.7246521106914
352.4570583664123
354.54174578818623
354.1693121707996
350.3261405229089
352.2271074053539
353.31797099296796
353.46079154912314
351.2218286588318
350.9337585435792
349.82865349537235
354.1818573927386
351.08440910662694
353.4015668009165
352.33382956022325
350.35867380018635
353.51222230916875
353.24494909965273
352.1408079616961
354.57924127742126
354.8172898971915
353.21747384135233
352.8113385561005
354.2793741096409
351.03974820985917
352.875304713857
350.86699464427454
351.0099159064893
349.6388588464675
351.7799683786841
354.63779656656493
350.4914591267195
352.7633009159153
352.7271217170716
351.0936243914797
351.72565430952494
351.3234095831576
353.7672406000983
353.63510008000594
350.5845490703294
350.43563960745877
351.73668974886436
354.21981395647003
351.525224652864
353.36889134666893
351.2035034226059
350.45681189722626
350.27917713286075
354.32724362233347
351.43263199152136
351.85358625005716
352.6860091032979
354.12468135633037
353.50911537965004
353.28449634085104
350.9579602555617
350.9101937444668
351.1286580663172
350.73645183748766
350.5322992351186
351.3004260844445
353.7165599771169
352.4217559698023
354.345799911448
353.9247256247893
352.0641938560934
353.237646346502
350.8096167578854
350.6067767458664
351.3154954661048
349.3336450545044
352.3100641546699
351.9941248135346
354.0438689267889
354.3711451444928
353.3507818872757
353.15056974469667
350.84075071853744
352.1678126274115
350.8949796035237
350.74050970857434
351.3655685280326
354.13679049500143
352.5903209495974
353.8059384931743
350.0238098879956
349.8699745441531
354.5168159027825
351.2983015400746
351.661906072234
353.0492759226263
351.3995650935265
350.4941307257085
349.95207107558497
349.9349048158665
349.8612086553829
350.33523818696926
349.8171100091968
351.3652959805398
350.61891125997084
351.58770069748863
350.75224815114456
354.4416231399236
352.3043143325719
351.3730994244658
350.9825655377486
351.60792871682355
351.4457715968694
351.22081118766914
351.0135191186225
352.4623502928383
353.500044633461
353.8316006531577
351.9870640140286
353.23903644613426
350.7775437417123
354.1584594696655
352.4430010944025
351.31116943147816
351.28549616145057
351.15169973179724
349.8279164763086
349.83851121366945
350.01835019143306
353.98342139948534
350.55936619439973
351.8342568381862
352.4989129570093
354.11753756879716
352.7509929876244
353.440942823184
351.5179514298459
350.6344333282439
350.9454384259551
351.4389488110921
353.86528443348703
352.3084877129239
353.51182229315776
352.6939325605068
351.62039790410336
353.81958013776296
352.9422418397966
351.97296910232797
353.648833839184
351.2593743799871
351.01908473491295
351.5817021986557
353.30388620978
352.0299477344745
353.03757624649893
353.8352902965904
353.0651711201944
351.34509354749525
351.8030503242207
351.1182833328682
351.6901896502884
352.3353538692351
352.12391674080834
353.99725917925014
353.8079374414666
352.3872779199386
352.3219294441393
351.2890536503653
353.9062145007139
352.20828958039266
353.7115079077893
351.9731473110518
351.67604203652706
353.2448044748545
351.9928554638603
352.68612925646534
352.9838608137603
353.7558082421315
351.3705643992947
349.4089046138389
351.8033956440873
352.87845035810676
353.3384763202174
352.9017981351698
351.61353845826045
353.39063965695027
353.32315917067785
351.4209281631547
353.53741228141035
353.5009954217899
351.6772586079437
351.41945953645404
353.5147362511771
351.9259890292715
353.61942676221435
352.9547791494916
352.1705728287068
352.69076087869604
353.05271268781104
351.98995591035253
353.23586240174575
352.3940167060594
352.2788200069359
352.74664547571774
351.68235052096844
352.62423037199073
352.01072289548546
353.49049621423995
352.1254184157893
353.21627641235494
353.1919585757108
351.9221775975023
352.0147471077921
353.1687506824882
352.9874357805579
352.88197966337634
352.2572774550927
352.752519140412
351.95852232519405
352.15598350338877
352.5451323916075
352.7870618236032
352.45273118775236
352.3251626912058
352.47058974849733
350.24656870731286
350.3419439600394
350.3435922579365
350.26209828764263
350.4986141692242
350.541871409598
350.4870483629967
350.6894942915612
350.7825697971818
350.8434467628251
350.8966584897838
351.1276758970089
351.24238715012666
351.3174923146487
351.37981798379377
351.6006328464891
351.72561195022337
351.79994752999977
351.83777348379465
352.08694510383475
352.2676733180243
352.37492359402773
352.4041326827951
352.61681848733525
352.7945914984715
352.9146477196636
356.64901324487306
352.91775635556337
353.2279950434605
353.3747469812892
353.44539504059503
353.4224369939309
353.6788072756223
353.8285755355302
353.91218200237057
353.8648002831921
354.09549917956036
354.2442256565545
354.3033992200301
354.2570618446655
354.4381120308142
354.5920726952413
354.65955955765116
354.6197225931769
354.738983189257
354.8982143801061
354.9628622364689
354.93986035927855
355.0156397264678
355.1666674289218
350.8247078684213
350.8191614723162
351.0302798581882
353.8809482259858
353.90462859628076
350.33244037669897
350.2317812397636
350.5247973198401
354.9367482388301
354.9733945554048
353.9657771970499
354.88980682562135
353.1204790492147
353.312601041785
354.18417764731464
352.93263840550514
352.9824738790107
353.7612292895268
355.10841918849684
350.7319310520686
352.86427175664403
351.3252362098844
351.4994420844411
354.83658341422387
352.18697857547465
352.32874571870025
351.959900472454
354.63260287707317
354.66613698340296
354.6025535039334
351.19059648447137
353.56227121898576
352.399830852679
351.8085612496019
351.67213868672155
354.5297080940924
354.2809559850222
351.28958114876724
351.771328153606
353.4203249686665
352.71120537052497
352.4985792238357
354.30702100984473
354.3032858768435
353.427923961908
356.25173302415976
352.8128022247723
350.5279599375384
350.4212440021749
350.6354851292433
350.6907864089317
350.7348962619093
353.71434311664615
351.50868847999124
350.9998562168159
356.1954854036641
351.25022665304755
354.9903235433601
354.38767211430104
353.9168083672665
354.74791021585264
354.0168742872804
350.8496741660097
351.4154033222075
351.82026080096887
354.2939529506826
351.08774103216234
355.11356440947105
354.4430683097314
354.8724592989232
355.0686104724692
352.9055564358812
354.632345306616
353.5566572962459
352.0587299890218
354.77984095598777
355.2051443846676
352.24305439696803
354.13231964138964
352.5420923200272
352.3964305203098
351.71201259679407
353.02416873144773
353.4167125883001
355.63753126749964
355.2621029954814
350.55921407987154
350.7385620603522
350.9268541471768
351.3219993082273
351.4725792290519
354.9426247389553
353.62563326455364
355.07871433580993
354.2210205166658
355.1725321701765
350.86602659192846
354.41760281526905
354.3381437914715
355.04564011979284
351.7853400608652
354.34946716645896
354.03586070444
354.78987217536525
354.559051258931
353.8473879599685
351.85508283253404
354.77340509796375
352.60943230955627
352.97560310286326
353.9747391619875
354.0422378323648
354.68419295792347
352.82009289532954
354.47300672487177
351.11959513641284
351.6143852995902
352.49046040605765
352.4294373496884
353.0345601855241
352.3254321347373
353.3396375752132
352.1517017378587
351.1415147727683
351.05387387000206
354.70563977817426
351.98536580557845
353.53381399523585
353.45489729679844
350.84533654836827
350.762954974745
353.77300387220305
350.7936342012938
355.8979585739599
353.18778481559866
351.905104283325
356.41925500844826
351.34013036166147
355.00785219379304
351.5133676914105
352.68425722292875
353.5077584257894
353.1018771221342
353.2496232652229
351.9191183084326
351.6820072679231
355.04421087185386
351.6154239919153
354.9828688296113
352.7331274842622
350.7597427646599
355.3659984654743
355.1799956381188
354.3296669116717
351.91373119176683
354.0809027870678
353.7650422417969
352.3167686458414
354.85494576749187
354.49272746928574
355.24566114297073
353.0981520553136
352.4651481779506
352.1726784158748
355.52427750950875
352.93206793688387
353.45410954587607
355.0088264980798
355.29554828261286
355.1405131190205
354.1393208435093
354.4109637235602
351.8275854750251
352.2292600534571
354.00883733486944
353.6832474610996
352.2204866264433
355.1924856758887
354.5483012762578
354.89598786321613
354.2514553064617
351.9660835319956
353.02457637568585
352.37467828877504
353.1597901747327
353.5361091309008
353.8459128713097
354.78454176723665
352.5400465214259
355.0866264718694
351.7190871403183
354.4226438376502
355.7822680799523
355.2921095528083
351.3676458343146
350.9829524671647
354.5731731142564
351.52325087133636
351.1486028478359
351.29553646618837
352.6918542837183
351.0903833749821
353.6207925943945
351.98900676614056
353.26327845233067
354.9011381847949
351.91089475400787
351.03009792961467
353.60318257927423
353.93610704344457
351.2363333854331
352.79199974608093
351.2177465894509
351.0948140923078
351.06037923993324
352.6237230269966
354.15833582734837
351.47776178178054
352.07133083626616
352.82155743377325
353.3478266017721
354.6661429929578
354.73159760685917
352.3698814366855
356.1092341017917
351.33147718196534
355.3001506918646
352.03376678501604
354.1959053538639
354.8921274177762
355.4076531449088
353.1530700391589
350.95191693839195
355.07240262602346
355.1347052874628
351.4853194730114
355.24551696361294
352.6202097330229
351.09590790072673
352.1046927408134
354.0938396266941
355.4699045390727
354.81355221031964
353.2157324755007
355.34624948026783
353.05063807309523
355.0221558721572
354.9756302297369
351.39516068127864
355.34095609742354
352.28439530273255
352.49338943159097
354.85814577353193
354.5179312294568
354.6834446210937
353.95742862993126
354.40991746760835
351.4941435213754
351.83980695030414
353.47372504824466
353.3138397802503
354.01339964461073
354.3436506937144
352.93730743534525
351.7368323344097
351.3769416195723
351.5377932754355
352.70799073844967
351.9094161285649
353.4114630680798
355.14227890259093
353.880604692043
354.60949110407864
354.2759054564328
353.56634281523367
354.19461259362726
356.2042603370111
351.9343631226678
354.60268257558437
356.3524139006161
352.81289512581714
351.64167192775795
353.75376533098125
351.2610459839362
353.7987576574356
352.7462793433774
354.48830328589844
355.17915442293383
351.5405622757647
354.5487367668926
353.67107224847615
351.3908777331381
352.1754862200296
354.76629210330475
351.30189152787096
355.54056351353563
355.0103438027992
352.5675573326392
355.3632943938379
352.7698592909604
354.65938327273943
354.3320339125465
351.7127037055536
352.9304053979116
354.7716355143346
355.4398099429517
352.462947720691
352.6068093994766
354.15888749604613
354.62596559255616
354.9129767846026
354.7646124950758
354.4379564008257
353.14285323727273
352.16813678745456
353.4603259698514
351.74105046391327
353.04936987114445
352.8099974899968
353.54584560867585
352.30935604541787
353.31784679855673
351.6491756311017
355.8302180753051
354.37246566887353
354.4176817799335
352.1492911035365
355.3654944809261
355.2472228922
354.6231849032203
355.1079617096172
351.75081511619464
354.02498196406054
354.24824156927497
356.0059893807092
352.0927335653234
354.8009637596156
353.652664486109
351.9009312839889
356.1145596309954
354.28835080709376
351.52464207785016
351.9381524987089
353.8194493069819
355.1334105655143
354.3721752130693
354.7312476879679
352.42485707959963
353.98313533874574
351.79064687457924
352.87666259206844
353.6937838469035
353.907662332766
355.0951463458342
352.6361633373289
355.68630451625717
354.3460366723929
353.8827328495265
352.76446203974456
355.5907649924478
354.50169290351425
354.08715200485636
353.3588409152521
353.0592715701509
354.50584811144677
355.50696080799173
354.54029631261415
354.9549233598425
353.4920847788182
356.1623790131087
352.9840871770658
354.0874905965355
354.24173693940907
351.675066261994
354.6934588579664
353.14118671940395
355.4779330984878
353.4867069913158
355.8411726746228
353.80541486800485
352.33932659439523
354.92598092165537
352.24105979497074
353.67804763885715
354.76115066283177
352.5328566147666
355.1753252241741
354.3090856680865
355.20661647393456
354.5602256467627
355.69335507516547
352.4481392376995
353.742703235429
352.32175450330783
355.0385854972442
352.6299717693125
354.844793958073
353.6182910753446
355.3674471334079
353.8762827522842
352.1255759346132
351.91822781958643
355.25070707705993
353.0621330389583
351.97862528903045
354.0042530510563
353.8598331733358
353.00623586180456
353.88241824633315
354.84609839077
355.9121968385818
354.55154035151185
355.55540631706697
353.65291113287304
352.09263474462307
351.96304059088544
354.7167836386914
355.7692579000958
353.4773055288858
354.38318403153716
355.4060262769115
352.8888503369468
355.64319358110396
355.24425844279455
354.285297269094
353.1095353764962
352.60957639531046
352.7770486784795
355.17982821019865
355.5478929623022
355.6496573425992
355.3523847730325
353.4063728846951
355.1193168874869
352.6538071357314
352.90943258697706
354.17561401201596
352.5322427443428
355.3178287079832
354.10390470850854
354.76681191105314
354.5122113866916
353.56745942846817
353.28654862379904
354.00349044277135
353.38097632410813
352.9204310596811
354.8917796555547
354.0674369615892
354.94590509431606
352.2438043514786
353.24484887436216
353.79877130869124
353.3301114908305
355.9486672928826
352.39715422137533
354.6768201331256
355.4406437272523
352.22811234515495
354.63785911636654
353.340875414504
353.5804120163998
355.72794320017584
353.9174339999909
355.32092124610926
353.7825911461848