/*--------------------------------*- C++ -*----------------------------------*\
| =========                 |                                                 |
| \\      /  F ield         | OpenFOAM: The Open Source CFD Toolbox           |
|  \\    /   O peration     | Version:  v2406                                 |
|   \\  /    A nd           | Website:  www.openfoam.com                      |
|    \\/     M anipulation  |                                                 |
\*---------------------------------------------------------------------------*/
FoamFile
{
    version     2.0;
    format      ascii;
    class       volScalarField;
    object      T;
}
// * * * * * * * * * * * * * * * * * * * * * * * * * * * * * * * * * * * * * //

dimensions      [0 0 0 1 0 0 0];

internalField   uniform 300;

boundaryField
{
    inlet
    {
        type            fixedValue;
        value           uniform 330;
    }

    outlet
    {
        type            fixedValue;
        value           uniform 300;
    }

    wall
    {
        type            fixedValue;
        value           nonuniform List<scalar>
36979
(
312.6445307102568
312.8029513568052
312.98194147745045
312.9799174506614
313.15617398547874
313.29530581987547
312.87179592304403
312.1831768123844
311.8042597961667
312.115831186435
311.5373883371037
311.54425526403503
311.52685296490375
311.5370866272458
311.51641946525353
311.5707027696057
311.56996618904356
311.5523564852467
311.58774249365484
311.5718611787979
311.59805162070535
313.70932002783616
314.76519213712714
312.0553732296391
313.50308842701804
311.5990654138245
311.58418613598
314.47251413714986
314.37016058519157
313.94147701620966
311.9187119164475
313.83976465341146
314.1572806982544
314.1267773019713
311.53132538287656
311.5141053362321
311.5143861686978
311.4962074222596
311.5075549615972
311.47298151686965
311.4458351695274
311.4837026811653
311.46538186517614
311.47156354478676
311.47180692990867
311.4538582562733
311.4556125099986
311.4372596592822
311.44280785301527
311.4230845712242
311.4020590650983
311.4185745718542
311.4016145066213
311.40540946738537
311.41021274220947
311.39282537548337
311.3931253952451
311.3756128709468
311.3781076093113
311.3628036141321
311.3422443960298
311.3341555393151
311.3184645146283
311.3333296646812
311.3418628300065
311.3232776854
311.3235436173594
311.3032874425923
311.3034782900224
311.28890012634525
311.2654225222244
311.1662170726547
311.1194180030904
311.2361584300192
311.23461020897594
311.211395895613
311.22108351539146
311.1975407048369
311.19470470260217
311.1942791276131
311.1714364542776
311.14007547328026
311.1183895873788
311.13427608532123
311.1404779199003
311.12538137127797
311.1463313727664
311.1290657343828
311.11524141201994
311.11400511296046
311.1708999647097
311.2127361165052
311.2758669963455
311.32086715664826
311.35716859503674
311.3935991283589
311.4236197576979
311.45866714142556
311.4879548960573
311.5241146028241
311.5514938499993
311.586530590625
311.60456572349017
311.5694413235533
311.536115984962
311.4995666870686
311.4634598133412
311.4283816591621
311.3921588863357
311.3612197798106
311.31397484341994
311.2790450025266
311.21282778906226
311.17153854189036
311.10572873949917
311.47908405695847
311.4485771846577
311.6159785901195
311.4065474526571
311.5895177698413
311.51976201429875
311.55054054550214
311.379649358445
311.3350179952116
311.3003704864013
311.2458393520568
311.1915912915625
311.1416923879669
311.09955968608386
311.0930743970542
311.5407399008225
311.54862272503493
311.3965471422759
311.2809031336191
311.08949894317135
311.08411178129126
311.27924147917645
311.1633508839862
311.36784477853456
311.452449420138
311.58741816613076
311.2838852118927
311.15550244676007
311.04273568346633
311.37398941451534
311.171369164803
311.2442177931906
311.3369904503131
311.5338859788999
311.43687121929366
311.45550693290323
311.3771751197391
311.6102029635987
311.5108332445989
311.07822963800305
311.1968124855024
311.4812678998885
311.6185242566531
311.29582445919834
311.3663216845702
311.07345592654565
311.36146690335676
311.25696130845813
311.160581021319
311.1423540432898
311.43462241111513
310.9974910206726
311.414897461615
311.4551495889512
311.3237084566976
311.6222825198845
311.4264348039514
311.1491822074595
312.28843336759564
312.4950040348896
311.2700522551594
311.5076108227995
311.2317563724086
311.54888499412203
311.3949061886515
311.6239184915333
311.23058834804
311.38421675858007
311.49291257167727
311.31971373340843
311.2364497829061
311.63367029639016
311.35608706880646
311.01312445993983
312.1789303410994
312.14225770455147
311.1183499849046
311.48072047224315
311.3940034652751
312.02007894349845
311.19594166046386
311.391662202058
311.28292030962166
311.84739144956575
311.69177265294365
311.51013095361316
311.38916447869605
311.14476540822756
311.85659326092974
311.41584161307173
311.46348432558085
311.22143179375206
311.9788657794325
311.49363902339354
311.17235486819175
311.5552212682618
311.2736595578736
311.53105821253223
311.57744650438013
311.48019358816333
311.20696727019094
311.6771047345796
311.53830924885904
311.21685896441915
311.38710459105397
311.57413949383385
311.8247046409612
311.4536472028403
311.545428567069
311.90570041708526
311.68628455103556
311.8109208895531
311.73707078035505
311.6271540108726
311.6906233270855
311.9630848817169
311.9629598434905
312.0141354362168
312.0151609515082
311.98144812093136
311.9805787202887
312.05620737798074
312.0578255132688
312.0929345591976
312.09516672854403
312.06972503887175
312.0682925565846
312.15501457337473
312.15725468906254
312.17635754873515
312.17807218284105
312.16144234252215
312.1609321263738
312.1952277462652
312.1902772807953
312.2405009109144
312.23844968821373
312.1644177787693
312.18533354409993
312.2800409413516
312.27943590863407
312.31294651787795
312.31265540053744
312.28273182986123
312.2853717425072
312.34171570481544
312.34211156084984
312.3677133192222
312.3688141651136
312.34293853296487
312.3451058900159
312.3910925581578
312.3924026576784
312.40893064601903
312.40988706834554
312.39001038524634
312.39173755574643
312.4191039987695
312.41427032562177
312.45199176079086
312.4470738292074
312.3590988415402
312.3877115771443
312.4847893386672
312.4828625996107
312.51117725199293
312.50952012940576
312.4794736979221
312.48367907755363
312.53276773248064
312.5319731859803
312.5509458108668
312.55120993670073
312.52641117285754
312.5300447854007
312.5670109361303
312.5672433499879
312.57813941494237
312.57822556441016
312.55943376222837
312.56254892939575
312.57938165987554
312.57623816033254
312.59847494675245
312.5911022576425
312.5343161609578
312.5387505535749
312.6299744345155
312.62777003952635
312.6527651152837
312.6512662809481
312.61994581678516
312.6257390747666
312.6706316174564
312.6693481171454
312.68485232153853
312.6838843344086
312.6601060040933
312.6644217010766
312.6959108763264
312.6953192482603
312.7027399021289
312.70262265918404
312.68576377964155
312.6883960286632
312.700599628617
312.6989402125877
312.7062522838016
312.6920496688714
312.671797660571
312.66886954846035
312.7397189655307
312.7351329325047
312.7625157116206
312.76019507708844
312.72622649795943
312.73240003776743
312.7792220864146
312.7775826423191
312.79214396294856
312.7910374687502
312.76782353547554
312.77135524616256
312.80204854539
312.8014006939659
312.80850679134977
312.8080237266251
312.79014437204415
312.7933439587175
312.8068257396789
312.80563540919894
312.7995860790769
312.78209213260703
312.78480563733785
312.78342245417656
312.8330832435588
312.82561457087
312.858073348127
312.855040055003
312.81442060171713
312.82280477072436
312.8751770398336
312.87290269246483
312.88807195182835
312.8861606944167
312.8617147169737
312.8659190061004
312.89760124054123
312.89629648892577
312.903859124493
312.9029338023439
312.88406334835935
312.88748911413046
313.03169059308226
313.03550257960165
313.04621532954
313.0441705263675
313.00084306878966
313.0066585709168
313.0190191137726
313.01240180396553
313.03524924049634
313.03171525781175
312.90329148729467
312.90217944844267
312.8895979310361
312.87585937871705
312.8846226664299
312.884375426707
312.91642265727404
312.89665106839783
312.9739476357898
312.9665528054849
312.9898523170614
312.967456379392
312.9710679598298
312.97187153822307
312.97290800947144
312.9758820750609
312.98813367458985
312.98707114720315
312.91559330918074
312.90327398879646
312.94299341909937
312.93903038724875
312.88866773236026
312.90064202802
312.96695223527564
312.9706668137384
312.95777526932085
312.9617766427021
312.9816520327538
312.97990233279666
312.9454564089926
312.94989150797943
312.927509252495
312.93321676826463
312.95961806110574
312.95737817873726
312.1355499553925
312.1350535029779
312.1046746923512
312.1036688736105
312.1260702060016
312.12846383987517
311.90781886050854
311.91357026393075
311.8683299315093
311.86422272222495
311.8987307629855
311.8957833541335
311.86468682281577
311.8571503057979
311.84285346184504
311.8360982490183
311.843397466454
311.84920909366
311.8134120106685
311.8066988883175
311.77732551361106
311.769684856923
311.78843493470526
311.79346339104177
311.73438917044194
311.7252701843005
311.6817646933981
311.67152623104386
311.6955207887211
311.7047409140676
311.61090721526637
311.60094492638876
311.53457196115863
311.52333181557475
311.55822850966405
311.56622128697677
311.5350294763912
311.5111269780995
311.5257476705513
311.50446684253234
311.4770736499776
311.4946695326802
311.51147801883104
311.4941286884848
311.48947622473406
311.4736019855261
311.46714053162424
311.47953737226413
311.4599614602089
311.443005088054
311.4216997303854
311.402249012629
311.40508128448823
311.41810093872414
311.3724259130702
311.34960404236534
311.2706288042078
311.28460198343186
311.286461154136
311.3043664206223
311.3076072920657
311.2636916750143
311.3147569693355
311.2719338785761
311.17715540870756
311.2233645389631
311.25289082426923
311.2769629310751
311.2166671578159
311.249702356359
311.3263367394802
311.2918010554398
311.6328843713915
311.64467387461343
311.7475093305286
311.75319855584047
311.8206251925868
311.82574757621484
311.8611340657753
311.86570867239254
312.0297656585148
312.0283123702069
312.17241837951747
312.17214983096994
311.49765752669435
311.5101165535675
312.24316914316614
312.2468744040958
312.31449670493754
312.3169634008343
312.36854017916517
312.37040152522644
312.40129535582884
312.402644632154
312.4425762737707
312.44960721724914
312.5050425264522
312.5088309966122
312.5446137566976
312.54811382831485
312.56712299427284
312.56907239589526
312.57502755441544
312.5888425176581
312.64267021211793
312.6475342068814
312.6744916566704
312.67803430822715
312.6912838450609
312.69270588540826
312.6518216446731
312.6784431194447
312.75108715266333
312.755276207061
311.47743174255385
311.49179958069647
312.780539631521
312.78390108736824
312.7954346747877
312.79778490421006
312.87445159701355
312.87824319343684
312.65089758377957
312.7236103881003
312.8443561717427
312.8495127368656
312.8898686174873
312.89241599275863
312.9718939280188
312.9701917478928
312.98811357550596
312.98647499757976
312.7558637053236
312.75683193311437
312.94592478908345
312.96404703822753
313.019523395965
313.02396756193764
311.4425245086957
311.4547167303683
311.35404790050563
311.36859967067795
311.20940253976045
311.2412682704258
311.338006173644
311.3123619738881
311.27055232352836
311.2914291314337
311.33487951685953
311.3066650105827
312.58092316322376
311.9922104785936
311.6911814599768
311.5649712302021
311.4721961222405
311.4335160423504
311.47091184376427
311.3777534253336
311.45315853530855
311.3996106808918
311.51565019246055
311.5674189636131
311.49268508327356
311.300340672516
311.1581951171341
311.6007632094209
311.63239868598095
311.5653170102788
311.2124026130558
311.50896130917704
311.461343951057
311.43224861870976
311.3556867689253
311.44071681043795
311.5296566983608
311.23860913829134
311.1694470174977
311.22887816355455
311.5075538957333
311.44162473831557
311.46177872712735
311.3245012119877
311.2991717382213
311.1667122340126
311.3832698732095
311.46481379136196
311.41497910693727
311.25513591047996
311.34495626131434
311.1738413742478
311.19983138628123
311.40391088921785
311.48308554102067
311.20517678573276
311.3585462799296
311.39096402083396
311.4439307918411
311.28798081881496
311.1835012905984
311.40124234427344
311.33077699348155
311.2441323656411
311.1918861066595
311.25811145215084
311.1755508834483
311.2045527434228
311.2662636755328
311.1688160609504
311.33500925248944
311.1574852919061
311.2272584343155
311.1997312474708
311.1797816286639
312.89649747951705
312.8893774434632
312.87577337329463
312.84990796605837
312.8081214173316
312.79430202224665
312.7787573802476
312.75350354164806
312.71221774937345
312.688313723799
312.673552558307
312.6441019625507
312.5985399341267
312.5653066323346
312.54005435113015
312.50862506095285
312.4536891318258
312.4000331098694
312.3588634682158
312.3103303097404
312.24523500347385
312.17123421417904
312.121475325028
312.0552502069122
311.9742843334342
311.868914651578
311.8166458021775
311.7481340954793
311.6378387740301
311.5226334049347
311.17257573873576
311.2043297211479
311.28053889230887
311.32100358189916
311.37719013579266
311.4017676242939
311.4446626995553
311.472981414943
311.5121113113131
311.5442560432921
311.57496748533606
311.60610701137796
311.63567717162556
311.6562370976131
313.0171418958941
312.9788218749011
312.9742729518045
312.9595425166308
312.93510883884414
312.6830210357117
312.9989629199521
313.02438615560453
312.5742076416639
312.6237068355165
312.55583358693855
311.59737777561213
312.5222326778952
312.4827287340282
311.12167262276967
311.2527317106673
311.2960779777916
312.14852320911274
311.16228588391033
311.3559895481267
312.7951848448462
312.8310237345847
312.20440747990745
312.7878929407976
312.8651589321912
312.9694691546148
312.97357194241323
312.6602561862449
312.281127229789
311.39167220013
312.33503625133415
312.7676301386874
311.7869727879814
311.8403366888871
312.8833771969383
311.9209089144398
312.8898041908443
312.3812902116757
311.4226601543983
311.45973581068006
311.70026821702345
312.9178114232641
312.947828665532
312.7354590249777
312.01846122350213
311.4952340051671
312.4227935313195
311.62056525502857
311.644709736751
312.08886910555754
312.6924185896794
311.5899092939937
311.5278461113192
311.5604846361599
311.6554762294557
311.52259480914273
312.65698965070015
311.46667838929545
312.20459004812795
311.64904975379034
312.50111956905556
312.9265878230931
312.6617959539421
311.49428364995447
312.1663718462991
312.9142013138129
312.47793288250614
311.63696242185114
311.6859159017597
312.9598155967666
312.6065382426597
311.37789823925743
312.0391119444139
311.5587473434049
311.5814810730412
312.7334718077817
312.70337902664073
312.3403387772179
311.9315215327474
312.11198805643926
312.78698875815826
311.3266600612441
311.43602979421877
311.74380393649557
312.75549043550905
312.67315633919804
312.8520729650004
312.8160049064671
312.874160804472
312.8906919343919
312.2939943509767
311.84261993649255
311.6141037510908
311.69740060233653
311.5193441676503
312.6239793779617
312.95392440662795
312.7998554086754
312.83346765206636
311.36968687638165
312.8620634505054
312.2439721203941
312.9407698918544
312.90769919311066
312.87768787151083
312.3668774226675
312.74514935308747
312.7682996158327
312.58493011860577
312.71949371653034
312.781321558586
312.31573122583615
312.68679346943117
312.0766649816047
312.2767502514225
311.88389213122474
311.41404013708376
311.5796151191885
312.1334675355051
311.78289733223835
311.29581533720085
311.9761854044149
312.0138311819957
312.52270811527563
311.64665588150365
311.8086941206911
311.44383003151694
312.97327644251243
311.6769677259684
312.64020595304305
311.6268375669549
311.6418658790913
312.4411424182462
311.71922479369965
311.2131299980921
311.7001061681804
312.5478015236186
312.44885303446654
312.9936142391763
312.5417736965791
312.8488989058699
312.39332960018174
311.52543357878454
311.2111360070472
311.6778455843543
311.247776148454
311.7139144138303
312.56291982510396
311.47920129356544
311.7142425110633
312.8222693437204
311.6599445543291
312.8439846231017
311.7557679031157
312.9538459642748
312.4204892751026
312.47896385900646
312.416163481359
311.6623754914995
312.639742515203
312.2888718999237
312.7144221427786
311.7387133477797
311.447529410749
311.55744411861883
311.71735487960757
312.6942952471152
312.01844852354213
312.6691199114947
311.8403668844221
311.4661887684442
312.93700808084947
312.62197050419326
312.32148851355464
311.48226633203546
312.72974898511393
312.68728967510685
312.0749336510036
312.2651201091879
311.7211210511971
312.71105918310485
311.8885945608733
311.3939528205144
312.65957914364236
311.80590487020305
311.5386862892315
312.9254195473398
311.72586710511996
311.9752393175682
311.62381155806645
311.73328755913775
311.5437714322054
311.70762950977445
312.81346619166214
312.8556652638589
312.75471520419984
312.9262619532294
312.2493300179056
312.8744705622481
312.77079496833824
311.56543839465473
312.15681315935416
312.54127401252566
312.5815127493559
311.8380008269028
311.75450197734295
311.337560704361
312.7732057901637
311.80183109465406
312.5650634779408
312.20199991859465
311.53709377745463
312.5953217014836
312.5204549619071
312.116051843974
312.8858757949892
312.95337240594796
312.51283940248175
312.3850641891523
312.80057952811575
311.78328814286175
312.41475046595093
311.77892181646524
311.70604545871157
311.2688394821977
311.93489010426543
312.90260315987797
311.5772335259729
312.3795444567368
312.3564028826169
311.80406717513387
312.0084202946574
311.75050582217693
312.66268307632834
312.6243243135794
311.6399190171921
311.56701328753746
311.9400818447686
312.7864572975407
311.8312097035732
312.55681342295
311.83386310484747
311.58454992270583
311.5130986799414
312.81436037191634
311.7783784372713
311.9995568734444
312.34743030001687
312.7627340990186
312.5911574489977
312.53395551201123
311.74225147873983
311.72784928823046
311.80277046120705
311.67836504707935
311.60079990248886
311.873778597319
312.6467378284834
312.2570126805622
312.81985522755144
312.7018586555886
312.09589193613687
312.516963133579
311.7038717961476
311.6261558156055
311.8207257597141
311.21160518885415
312.21745898626705
312.05977726829445
312.73380312956505
312.8314264174501
312.5501706139781
312.49008905670337
311.7065910002009
312.1453330317339
311.7356916186638
311.6705951208674
311.8933044573513
312.76228004111573
312.31170998561686
312.67326024712776
311.42518224517124
311.4650584745447
312.8727140434373
311.8021136777865
311.8959779560162
312.46180549948633
311.86090464771655
311.535683614537
311.3708252754217
311.4040170908215
311.32900057787015
311.5210044672532
311.33549950468193
311.89039309383185
311.6414033935919
311.979761944991
311.6949337540207
312.85315778443237
312.2028339763181
311.84464380956246
311.7130265713557
311.96809372232633
311.8177240577595
311.84236539217204
311.78070322093095
312.2747808870231
312.58392129469036
312.6907365619604
312.0796237808782
312.52105345865033
311.7173061566709
312.7694277238299
312.30490511194495
311.8717874783884
311.86384627262476
311.81190886324924
311.3369427214892
311.33170582016743
311.4044395506538
312.71745032928106
311.5077937431441
312.0114082522809
312.30570698872555
312.7549634917242
312.34335584787067
312.56914249560634
311.86584683079303
311.65157801852325
311.7733408639406
311.91573643089896
312.4664908255493
312.22590732535434
312.5942277121841
312.3703563752094
311.977996003198
312.6848327013717
312.42867692246983
312.13315697194355
312.629389716667
311.8525832526121
311.7677715201729
311.9251209874588
312.5308392464547
312.1229312515223
312.465564790823
312.6736401762176
312.46499655353244
311.87996265359044
312.01719455387723
311.8188217000844
311.98782563673313
312.2369961506119
312.13954444481016
312.72035843328234
312.6628426237389
312.28221077388133
312.197041396677
311.8882879041532
312.69072646342886
312.1902561033125
312.64090361508795
312.08750957077825
312.000970402586
312.5090426667907
312.1409036378744
312.3500911659648
312.44506901264674
312.6497766091721
311.92611297289176
311.0319911367026
312.07635934275675
312.41243838961634
312.53519929820646
312.4139751828704
311.97420126753474
312.55515335067065
312.54646856816674
311.94908169709583
312.5827510623074
312.57720761534756
312.0049670297679
312.0044836390068
312.56976203974534
312.0892464564739
312.61416455395363
312.4194995376512
312.1787399324206
312.31642500232084
312.4471825774185
312.1191065127131
312.4987057512329
312.24989940719354
312.21118553085887
312.35338577922784
312.02329639111446
312.32102625831953
312.118551538189
312.5654978806262
312.16520148928663
312.4849614132363
312.4693861440079
312.10019714372413
312.12754754005897
312.47706939310666
312.4271427274346
312.3939870749569
312.2180679411916
312.3396184526618
312.13097572657273
312.1934239198706
312.314907454478
312.3543492498543
312.2583864258471
312.216706113645
312.2635452189363
311.29668565237387
311.3434145215106
311.32267802837475
311.2768230177902
311.39516188856356
311.33538405624245
311.30877468435307
311.37995324267916
311.38229068734154
311.3791287968265
311.399767484269
311.4848732619051
311.53917332961413
311.58043471392034
311.63001425153186
311.7464248016938
311.82311223855663
311.87952741024606
311.92484442214
312.0271890861902
312.1052285898194
312.1636889272406
312.20383001973704
312.27763448560137
312.3391781388459
312.3918910375243
313.09518865680377
312.4205547206998
312.50208529714615
312.54449511174477
312.5744016130262
312.5837591515039
312.640375778877
312.6755606114354
312.70120454171786
312.701527678829
312.7516570388158
312.78544082863505
312.8035709837532
312.80187649712195
312.8437674315039
312.87881093851075
312.89813936958427
312.89756332157356
312.9266944188084
312.9624635676088
312.9805260802915
312.9824020782934
313.0028710595555
313.036659812782
311.3812835556777
311.3764245219657
311.4451760802423
312.6900194952994
312.7056539402731
311.37546246353014
311.33420277409584
311.42241591711206
312.97262486250116
312.98573847175857
312.7249431639856
312.9743261319388
312.47578807321264
312.525105615554
312.77095255545163
312.41048007845984
312.4422096635115
312.658981391917
313.0230831287508
311.38012243794225
312.36716455167954
311.59563593815716
311.69243861881324
312.94794312541444
312.0688062776057
312.1361977364832
311.9774569812071
312.88966479559195
312.9031673902562
312.89599544521843
311.51420722883506
312.615973340072
312.1875484345841
311.90068943953696
311.78870549882686
312.86390214777026
312.79567073944565
311.56230719369165
311.85395770275164
312.56101550635174
312.30921876597193
312.23961207582556
312.81506954216405
312.8078297253888
312.5800492005667
312.96560280161447
312.2859960098868
311.4558329636979
311.3722113876593
311.37645404381277
311.8106144837038
311.47151107835236
312.64478424708807
311.66298103180384
311.46029943785163
312.9785462371219
311.5329118166077
312.98255091410476
312.822237966945
312.693849634692
312.91741043285145
312.72363465324673
311.4312150493035
311.6095458480173
311.849170666211
312.7937336150618
311.4744496843222
313.02149533865804
312.8415205474984
312.9540449752523
313.00647103231233
312.36732609742313
312.8855606704399
312.60595240628055
311.99603240672377
312.9316584463492
313.0437323608425
312.07633936696
312.75677000647954
312.2259503606176
312.1468401614189
311.77818824581277
312.42081457850134
312.5486495423425
312.800839374776
313.0571736383108
311.37076234864395
311.4475874724027
311.44724842663106
311.5644690183762
311.63888815329284
312.9703211683789
312.62417554289897
313.0118668209715
312.7763106141795
313.0353959910284
311.4516736005085
312.8325444299452
312.8060169235908
312.998515761557
311.8218766557318
312.81130958376184
312.7327138421778
312.9360736349041
312.8684489770614
312.67616541471523
311.8742473062587
312.9264992904414
312.2567313982769
312.3961481863533
312.71002243377546
312.7378005629042
312.89897344030265
312.3362385946354
312.84979336253025
311.4839139318405
311.72582668164966
312.19694647535437
312.16855170048956
312.435355990933
312.1130738428428
312.5254308921565
312.0369145078281
311.4902080137814
311.46836035177984
312.9060232680744
311.9583656084407
312.5943556246292
312.5633519948161
311.56509883782593
311.51342841031027
312.6590501664942
311.5017636163833
312.88299806992956
312.48348908001867
311.90533944155584
313.0764028001385
311.57542727858316
312.9884327335381
311.67559908705397
312.28659215170495
312.5807274996965
312.4577992890645
312.50210280458805
311.9240756473949
311.7259637480482
312.9911682974167
311.69114375121126
312.97579786678614
312.3075991057674
311.43069883729834
313.0786734781393
313.02961809209114
312.797000176261
311.86082154638814
312.73117888993585
312.649453816253
312.08859245305416
312.93932632752865
312.84356768135603
313.0480319413596
312.42692519839306
312.15645380351964
312.01893888634646
312.8038509204522
312.3624011226031
312.54954447766
312.6606117281599
313.06126961814584
313.01811140558505
312.74827551985226
312.8177227551787
311.811255701654
312.1811284759782
312.7119906869121
312.62721696641904
312.04774962654267
313.0351053900567
312.8591785555918
312.9520669692081
312.7781489230818
311.8987972805749
312.39663220942674
312.11842440827735
312.4554812166448
312.5772259241839
312.6707007249721
312.92090372617
312.1947574829711
313.00355532579187
311.75371999143385
312.82551839048983
312.8864812277565
312.7263071079616
311.580035616672
311.5091536886502
312.8682861400026
311.64818639568745
311.5291894989322
311.56111965338215
312.26495708421965
311.58598584662224
312.60562780334845
311.92286871021787
312.4891813258413
312.9570893932441
311.887333183632
311.4981586091327
312.6092654590338
312.6930009389823
311.5491984799975
312.3035444904588
311.68458477611347
311.6151925716925
311.55427716877165
312.2334032183074
312.7574949567842
311.62551897006955
311.96807882336645
312.3255480004005
312.5181535734764
312.8892386244712
312.90589700634746
312.08949203583643
312.9384324455243
311.568527053359
313.05485480652555
311.89479820654196
312.7525333758623
312.9413589445749
313.0823934342596
312.4284856734158
311.9385276391334
312.99306281322197
312.72401165634574
311.64257764669287
313.0390412387403
312.20487688844855
311.5351361101661
311.94220414949336
312.72687982401703
313.09886759643865
312.9220711302193
312.4552046031063
313.0678460519827
312.390720217379
312.9789356150296
312.9635445328381
311.6218876471519
312.8104114921625
312.04146812730124
312.1493193714841
312.6470532968072
312.84317860788434
312.88700611787175
312.6910742619159
312.8101104426466
311.74619435340225
311.7809534342758
312.54474514013754
312.48665791062973
312.70753898480524
312.7943008041012
312.35016111442906
311.73507878894276
311.6872114750954
311.65330796069026
312.24510597097975
311.81904466105425
312.5204723170601
313.00958713578325
312.67004993752954
312.86632977762673
312.7758550664076
312.57274612320066
312.49925847486617
313.06941404632573
311.84183859798765
312.5686937261653
313.13229031062633
312.29512548264904
311.68986544676926
312.63246815639246
311.5853339989242
312.64934426541726
312.268365417284
312.82945974141126
313.0223149008877
311.6503450738129
312.5625560702979
312.6053234630752
311.67073080790345
311.98531305020117
312.90805796791204
311.61856693368327
312.90160722786214
312.9626372715267
312.1557590163734
313.05538117343247
312.3040528259545
312.6523507126926
312.77596850228116
311.7212936764574
312.3322192317811
312.90264802779143
313.08215168874415
312.104376873314
312.1996469485296
312.73502972337496
312.58369645733404
312.73259757900905
312.63657616195917
312.5525202332473
312.41731567066626
311.96735615582617
312.5166556114644
311.7349773035406
312.3761795643027
312.2633122822599
312.55349925041196
312.0244726138133
312.47038057444735
311.71590538227963
312.9971095459005
312.56406495286586
312.8021428856541
311.91849042331916
313.06151683594067
313.0327351497706
312.8612465584919
312.98933626690723
311.79927556801533
312.7045611435438
312.47252540851144
313.0739360951098
311.8786018603224
312.90752192945376
312.5909271096967
311.7917360288742
313.13367368109095
312.48000068154437
311.6861790552012
311.8113042029425
312.63580044563156
313.00072980206494
312.7932649256121
312.88833825261867
312.07459732188624
312.68704395598854
311.74759388575296
312.29952219394414
312.356039849334
312.40037118058876
312.8099038047808
312.1522529390398
313.13221926679927
312.7629385631469
312.6605281903382
312.21619163402977
313.1073996956394
312.80366489423216
312.46680348280853
312.4630420113048
312.35577080947394
312.6554478558504
313.0854178502822
312.83341322719076
312.90548657808637
312.50694753353525
313.17747189172735
312.29489326113963
312.70602036652355
312.579735838593
311.7510304269386
312.73620577678133
312.4000312223819
312.9451130534586
312.2748500542018
313.0687581488209
312.368347050312
311.9704298588221
312.9265798981922
311.91209499862975
312.5804733846481
312.88331227845003
312.0770053483842
312.99240664208344
312.4894710730298
312.85445776340526
312.8267063983807
313.0150827606629
312.0249095932796
312.3730217932137
311.9500023211331
312.95643152976885
312.1263195207907
312.90679495593
312.5470414108533
313.05211985230795
312.6328331416722
311.8683967078293
311.8173077898636
313.0158940091711
312.18428866112635
311.81815172888633
312.6749812632894
312.3734430619429
312.32196558101623
312.4764311556861
312.7999987764061
313.1228099892358
312.7923938904731
313.0234686207577
312.52715256787394
311.8879959872185
311.8186843688579
312.8379871433803
313.135363931668
312.4606200668807
312.74512550013617
312.9713183171897
312.2158457840927
313.1060892931513
312.99036453668
312.66456134711405
312.29655833272835
312.03574552445474
312.12819562705533
312.91066443544656
313.07782317240753
313.0721968559592
313.0398111846242
312.2571506578729
312.9552681771773