/*--------------------------------*- C++ -*----------------------------------*\
| =========                 |                                                 |
| \\      /  F ield         | OpenFOAM: The Open Source CFD Toolbox           |
|  \\    /   O peration     | Version:  v2406                                 |
|   \\  /    A nd           | Website:  www.openfoam.com                      |
|    \\/     M anipulation  |                                                 |
\*---------------------------------------------------------------------------*/
FoamFile
{
    version     2.0;
    format      ascii;
    class       volScalarField;
    object      T;
}
// * * * * * * * * * * * * * * * * * * * * * * * * * * * * * * * * * * * * * //

dimensions      [0 0 0 1 0 0 0];

internalField   uniform 300;

boundaryField
{
    inlet
    {
        type            fixedValue;
        value           uniform 330;
    }

    outlet
    {
        type            fixedValue;
        value           uniform 300;
    }

    wall
    {
        type            fixedValue;
        value           nonuniform List<scalar>
36979
(
317.70159705253144
317.03278851471515
317.2510606803182
317.1550974225611
317.3684127899635
317.5391796510756
317.9640585980171
317.270123578664
316.8095718701698
316.2591654664971
315.6341545072472
315.6528798349652
315.6331845332496
315.58029774999284
315.5500584750201
315.63877151436793
315.63938871820915
315.618153906194
315.65390696320753
315.63486653368415
315.63584671167814
317.9950410781326
319.2378689144379
317.1157846858421
317.80223149207995
315.6498745508044
315.6316494525094
318.97485702216704
318.78104419569416
318.285450728902
316.91832710313025
318.2202663425973
318.50370210892373
318.60972903101265
315.66101282871136
315.6420583454599
315.65252268045066
315.63265434071235
315.643983903741
315.5460686161656
315.49138004445086
315.6534054557073
315.63491785260703
315.6353655654395
315.66946317446696
315.6518277181039
315.6657031561887
315.64783364226423
315.6535828543186
315.59699691038537
315.56776138555267
315.6429855868981
315.6294274035478
315.6378910083492
315.67289247257105
315.65830784214893
315.6709124570616
315.6560169988137
315.65963536753185
315.62852530758806
315.60505870056306
315.59006829562117
315.5834692715729
315.6317024101364
315.6634143412048
315.65074459259273
315.6644827226464
315.6497589471118
315.6514774445883
315.6307916394284
315.61060965547307
315.4082793935367
315.3384077270704
315.5979601972318
315.60035018729013
315.58556416072594
315.60771817781455
315.59210352490413
315.59696956047264
315.58376223847495
315.5678861925342
315.50421068755065
315.49128034962894
315.53741626044933
315.53169987463934
315.5276162620062
315.5683879093402
315.55915089079775
315.5454952143333
315.52191275478395
315.58126323224553
315.594446417674
315.6362253782137
315.64703371075376
315.6495875955092
315.65502127107976
315.6446595732575
315.6501446497412
315.6336221473898
315.6438945963486
315.62782575052927
315.64182822138224
315.65266493484387
315.646958675949
315.64937710302763
315.6487103186661
315.651264118623
315.6571624493714
315.6560992991253
315.662470000698
315.65140877191243
315.65004179069916
315.6170906333961
315.5986177943821
315.55420906276794
315.64581649305103
315.6579321272936
315.64911239736824
315.652758984225
315.65262879548914
315.6520247081125
315.6442868659712
315.6622803313565
315.65498629161294
315.65427916804936
315.63385934858957
315.60878871178153
315.57854243484763
315.54685029136346
315.53726745050466
315.64489653679897
315.63314324221346
315.64755244461793
315.6563084438293
315.5690420694879
315.54284987338167
315.63428582996823
315.6069999749743
315.66752064647244
315.6565186689299
315.65868382588206
315.6460761616139
315.60122813001357
315.5402223423604
315.6435941887817
315.6088215767
315.64481678310415
315.6617511550899
315.6618190595684
315.6646187850981
315.63665269526336
315.6589055346752
315.6665432954287
315.65580452366333
315.5273164883022
315.6214033067702
315.64275122692015
315.65836922943214
315.64605007991304
315.6798698209505
315.53752697728225
315.6523226257259
315.63356371458076
315.6087476023263
315.59868267035097
315.6285775430795
315.5032710575772
315.6644614068528
315.6750393916218
315.6017511760331
315.687861340496
315.59790282659475
315.6008345987248
316.50886251226416
316.6907398458392
315.6631077535652
315.6604505571994
315.6015308703629
315.68964864409577
315.7156863916915
315.6711033777425
315.59133944419244
315.7427691008662
315.8136846864119
315.69136336984684
315.6458300660688
315.9515397121461
315.653148072073
315.4941903314547
316.4510853753663
316.38479475444507
315.5670636702377
315.72134299652504
315.73956571943927
316.30053546001614
315.62450884280776
315.58974521316844
315.5618291410109
316.1498233557811
315.9955248315151
315.67795050343915
315.7165366550684
315.59086085091894
316.14499029426736
315.7602389992349
315.7572404717436
315.59566822387484
316.23799542052825
315.75783083715544
315.5879674154873
315.79148751716144
315.66945797257966
315.8523905107273
315.76974203068625
315.6610863601975
315.61672092835124
315.97687050434735
315.85780806964544
315.607155576131
315.74184105211725
315.8735083400385
316.0952769054092
315.79419689473133
315.81895718436976
316.13699931646147
315.9051937599456
316.0149162610043
315.98492267841976
315.8802158404206
315.966133600353
316.5433801582534
316.5439195753434
316.6086574194887
316.6125404613448
316.5700922642313
316.5674080755909
316.6555300195922
316.66089897658895
316.6914352813438
316.6980841113812
316.67625932366485
316.67081044271515
316.73672966749155
316.74373043487174
316.7374626734195
316.74292354956043
316.7471134471143
316.74080276667144
316.736524925908
316.72465718920733
316.80749140453656
316.8044244568461
316.6531926416378
316.7032319144778
316.8636043642704
316.86549661714804
316.9030344880247
316.9062405576969
316.87312342828665
316.8733090887061
316.93326174874545
316.93785164229314
316.95762380567487
316.96335392444377
316.9417892037412
316.93976428023194
316.97608035626786
316.98203658349917
316.982525700904
316.98762795173036
316.9803670849745
316.9774512690564
316.97358960669914
316.96466030138396
317.02367995679555
317.01511031521574
316.8357477070766
316.899372648745
317.0741485418441
317.0737572723737
317.1090006322886
317.11004251549394
317.0739258029553
317.0764953841727
317.1343787787584
317.13689927410405
317.15347308203553
317.1576237202329
317.13347698623016
317.13412870176404
317.16835904074696
317.1722928463186
317.1733852063202
317.1768663842266
317.16452953926876
317.16437716629514
317.1584864430864
317.1550100163004
317.1809300213646
317.1687819952598
317.0765086675492
317.0793467103736
317.22861111519904
317.2278592323773
317.25812492091796
317.25955607659887
317.2210798053263
317.2262879689495
317.2783651810791
317.2805636383659
317.2926698305875
317.29533802129674
317.2719793244139
317.2737228850986
317.30171105106024
317.3047547301443
317.303052532265
317.306730306547
317.2952897143767
317.29428412777315
317.2883123350236
317.2892991711991
317.28636627783277
317.26591073440886
317.2489155789985
317.238658628609
317.33163168176554
317.32793332634196
317.35821814894126
317.35861967906465
317.31944446962683
317.3244106491885
317.374461718037
317.37616512068513
317.38465518628857
317.38730968701645
317.3668926635115
317.36707856659046
317.3900655404545
317.3934993222009
317.38980862278953
317.3934910589915
317.38152823201557
317.38148618431137
317.37609785199743
317.3785988226501
317.35303395006446
317.3292122825024
317.35110876146064
317.34354738639
317.3954564177656
317.3880624961389
317.42394839706094
317.423914217853
317.3765748131737
317.3846033411902
317.43992539571536
317.4411854084229
317.4494986502839
317.4513134817743
317.43060145201395
317.4313889919685
317.4539078542007
317.4566802224269
317.45308580115164
317.45645534665914
317.4445080794181
317.4441033651022
317.5327602537392
317.5328969835264
317.54227289478024
317.5443281309477
317.4996993326202
317.5033972198545
317.51547142967
317.5099058334592
317.5335193170844
317.5329600247987
317.44087980344773
317.4439245910469
317.40667437227563
317.3886102390133
317.4227894829207
317.4162556987921
317.37460549270895
317.3340412634144
317.4586399612767
317.4515843957838
317.47537720276154
317.4427137359166
317.47986502729634
317.47467539323014
317.4938655444866
317.4924163367932
317.4940207255567
317.49768904868324
317.43884300305706
317.42326780691695
317.47331795921593
317.4717911332067
317.407080415935
317.4211116533172
317.4945165099559
317.4943943347889
317.48991039718373
317.49026115052584
317.50477060141
317.5071846774654
317.4801912592228
317.4812677949389
317.4610827986476
317.46443326482586
317.4898533204073
317.4912935800374
316.73434751886435
316.72904654760447
316.7097654591027
316.7044266334413
316.71910810618834
316.72623158124696
316.44836110529764
316.46321591610035
316.40955742964667
316.402584544732
316.4495448549514
316.44201304844256
316.45487294120227
316.44078096057547
316.4529979932137
316.44113965759976
316.43072253672705
316.4420368906192
316.43472432262837
316.4237755453047
316.4042526354811
316.392567114498
316.4044056385101
316.41391939628375
316.36199021569473
316.3486561212924
316.3032725549382
316.28896154500364
316.3139147551548
316.3273034352172
316.2098978348154
316.19864959603126
316.10367405641
316.0951778696506
316.147900495619
316.1563412559993
316.1485807410446
316.1174746717596
316.1576681151288
316.12962884592054
316.08502006102873
316.10851579685044
316.1540214685389
316.13098539486015
316.1381125264748
316.11718571554417
316.10217409220144
316.11926370493353
316.11098985390373
316.08904065878534
316.0702405546997
316.0458777891453
316.0462238391109
316.0634267896968
316.00790995636805
315.9823698131979
315.8068811921712
315.8901962069183
315.91107494534117
315.93050778848897
315.9426948093913
315.8904801409263
315.97126416663696
315.91701384713883
315.7984174721269
315.85442201465446
315.9111084642477
315.9426973278783
315.85588601356505
315.89795362471585
315.9975990164542
315.9525922028243
316.2419643508486
316.25787464345524
316.36768589612615
316.377486968673
316.42637587499837
316.4363634836943
316.42045379048886
316.429418662391
316.63228400249204
316.6273981070403
316.72303043194484
316.71715365421335
316.086900373106
316.10213546692427
316.8144605368295
316.8184748576824
316.911542917871
316.91052048280864
316.9655197670282
316.96288415733
316.9724693493089
316.9685904505262
317.0119857558125
317.02199319582604
317.10839040371286
317.1095242750472
317.1522642010847
317.15277264597495
317.1624084714976
317.1599353491814
317.14441942775846
317.1665945304218
317.25177534932754
317.2547673279261
317.2864941155177
317.28687564798713
317.29380957890976
317.2909168995229
317.20310649832464
317.2436137099923
317.3502348199311
317.3515394712867
316.10180100565447
316.1214658145087
317.37674761623776
317.3768198256042
317.3793168940324
317.3778710206111
317.44000773677897
317.4401492598312
317.12309322284545
317.2355535664692
317.41374280592214
317.41626096271676
317.4429032163204
317.4410116830952
317.4992837563446
317.50173363458555
317.5048948355094
317.50749744680775
317.1956719891222
317.1914641429327
317.4151860184003
317.44015448808193
317.52175849472394
317.5230603448902
316.08299284588566
316.0995600007403
315.99041294424563
316.00867088694457
315.8237730379341
315.8583374067069
316.0360584220972
316.00346868871895
315.94626780817515
315.97342544069403
316.02032737827227
315.9837509873671
317.5707225144895
317.04671685921824
316.6300672642525
316.1554778533179
316.06447036093596
315.8950953610114
315.957413585139
315.87043902104824
316.0731422062565
316.02988541434155
316.04499374099805
316.13270703476536
316.049658369614
315.9234028858343
315.7646680856083
316.1874714837262
316.2343700367048
316.15470331828107
315.8404629716105
316.09067765241474
316.06918649867185
316.0595191068944
315.9846438449576
315.96748739621944
316.10950498533697
315.88958660777183
315.78271406171274
315.8418135186463
316.0941908136651
316.04425740720137
316.03452414258544
315.8317471105799
315.9136065949525
315.7127357627217
315.9971409264317
316.05868340731496
316.0243507414348
315.8676256473816
315.96032674507376
315.77246932297896
315.8035897547847
315.9507076846175
316.06824259350077
315.81148399713874
315.95220321503655
315.9591773985628
316.031057463185
315.886845245351
315.7722400608813
315.99148175079813
315.93035786836066
315.84735067512196
315.672646424094
315.77327145739616
315.7712922911707
315.805668563507
315.8363713238895
315.7023938498417
315.9052590076151
315.6912602617044
315.80841836873464
315.7937024925594
315.74866883681136
317.41138906922635
317.4221940247951
317.4223838312872
317.40288394404615
317.35943565452766
317.3594061850549
317.3558157721375
317.336791197187
317.29091422833164
317.2731639252761
317.2676532254858
317.2375581851962
317.18111702893987
317.1469502602173
317.1292713209388
317.0983859189138
317.0271634949067
316.9610521551965
316.9335515101891
316.88839317835647
316.81198880646144
316.7221041918818
316.69889913782697
316.64168769130714
316.55320675034596
316.4211057957484
316.405712676963
316.3548102721784
316.2145390664351
315.9828841424186
315.568722460635
315.5672169995195
315.6490141343801
315.66089966788917
315.7024308434591
315.6825231592369
315.7138959952111
315.69610381034107
315.71923502105625
315.7100935004243
315.71573573710106
315.7118735040218
315.71420220405633
315.7062986611578
317.50558914168363
317.4592950948331
317.47452151689436
317.47125607033837
317.4532923199188
317.27440935696006
317.48277327171434
317.5085420332188
317.14888858015587
317.21390797045024
317.1440935143852
316.1403972760896
317.1108206854962
317.0652135346279
315.42593030252374
315.6287125015174
315.64718174076353
316.7148796144463
315.5753713023102
315.6927782084903
317.3500545267708
317.38437464381406
316.75672158216094
317.35971381372354
317.41615658271235
317.47711094764935
317.46199189084587
317.25450841000526
316.85651733605073
315.6957723370829
316.9119314946266
317.3487130392434
316.3876426694092
316.4107797606663
317.42355401442404
316.48455322930715
317.4117065376273
316.95144648648665
315.70192376569383
315.7100635514566
316.3088531684921
317.4355828171353
317.4630905603536
317.3183856809124
316.6041430254772
315.71149591830414
316.9829953737846
315.70753430464555
315.71076807176627
316.6720574493312
317.2688706496494
315.71612765655755
315.71816103647393
315.7102486114721
316.25022330841773
315.9670566698205
317.2348602476773
315.74989006869185
316.75622623893133
315.8012060509514
317.0700605218318
317.4193868931505
317.23439346543853
315.7643811417754
316.7160478429941
317.4117686349257
317.0466803102418
315.8081763027195
316.25340022396625
317.43082840237753
317.1807009762477
315.720363071147
316.60412956509754
315.7902286704653
315.78194231406343
317.2977538057739
317.27073849872835
316.8954259121041
316.4953487070216
316.6737966643422
317.3300385277422
315.6604987372788
315.74688309019905
316.33100828535635
317.3104930748655
317.2425848150338
317.3771179842199
317.35166357903256
317.3902717106017
317.3938180313731
316.851281290847
316.4060095839694
315.80217100549714
316.2888499602645
315.77576652076857
317.1983869518378
317.4337215665617
317.3382917232011
317.36750670278167
315.71530678233535
317.38061760031303
316.80051686079736
317.4310533597101
317.41182071194226
317.3852524595368
316.92258557531375
317.30546553169745
317.31934021536426
317.15663933797566
317.28610788617016
317.3311120646645
316.8703223567575
317.254300952919
316.63899449625995
316.8389443578581
316.4435987533117
315.74086707137724
315.7930572946501
316.6875206585739
316.3673138426714
315.6523734466408
316.54364282964355
316.5846196901696
317.0948911066852
315.7849263338442
316.3828844374625
315.75257544786854
317.4403634012838
316.2090827569936
317.2149788162003
316.0825184734857
316.12719545074503
317.00430382178513
315.79853749894727
315.58791950315305
315.8125539557262
317.11796903613896
316.99252080129094
317.46193175838346
317.11687272646867
317.3826660081215
316.94970756336124
315.7697477038271
315.59462163630093
315.80521451876024
315.61127052800083
315.78164325579456
317.13186011708916
315.7742171499933
315.8091935227783
317.32037911464437
315.8803948351806
317.3389049462665
316.3226901917534
317.4438178388242
316.98162619517615
317.02767402151557
316.95891621485737
315.8378723130893
317.1921318274392
316.8193617898378
317.24946115952775
315.9023172577103
315.76664446611426
315.9273320428775
316.1588675488653
317.2393528895972
316.5553452669335
317.2196189603802
316.3954474837561
315.6911293171262
317.38322791214665
317.17637712900387
316.85803109883165
315.8075700470258
317.25973315755255
317.2388118249428
316.61693124519377
316.7959706532038
315.90772825992985
317.25549819515635
316.43920180661434
315.71643049833824
317.21452172199923
316.3685505679265
315.8323682863563
317.3798419523711
315.8407206545727
316.52027298021017
315.8680577809684
316.21727202701885
315.886519221433
316.10492279689265
317.32369762348736
317.3409543447542
317.2850138707609
317.39560881756614
316.79141569423115
317.35472641425054
317.2972866700156
315.7933448650136
316.69352221852847
317.09347249692456
317.1350731116859
316.0610995024951
315.9586075561332
315.6885272575044
317.2866507955944
315.8778752099786
317.1194108642922
316.73881550267214
315.80856211589673
317.1458388940419
317.07308410871116
316.65471045195926
317.35594177514804
317.39526701692176
317.07156152094973
316.93005472508503
317.31752011464783
315.9137804371065
316.9271819476348
315.82744288997867
316.05824207155007
315.6329130487234
316.48621366096427
317.3685784328035
315.8609356666781
316.8890798922642
316.90024019569364
315.91768624712876
316.1822870533084
316.2696764021458
317.1764967602255
317.15530508582515
315.9373233115256
315.88184236537126
316.4399250182081
317.2503369051824
316.3672568384083
317.07425602061846
316.01929375535263
315.88898832863595
315.8291239476273
317.2805233474547
316.32587899090447
316.5049058642205
316.8630408793594
317.23039800478824
317.11692445388735
317.05402352407
315.98834378733557
315.96397229421274
316.0436232089474
315.9779202320723
315.90567835505556
316.03978261972145
317.1723876566856
316.76206842624583
317.2729439232592
317.20280881609193
316.6128175096872
317.045128062373
315.992167121342
315.91701727601736
316.254750797997
315.5095103518205
316.7160266986576
316.5792648501182
317.2377641799312
317.2697342887787
317.08982749765016
317.0190346358794
315.95525519166085
316.65959573086076
316.0111661142558
315.9521195822118
316.04271528029096
317.25072627674587
316.8306081133882
317.1734555658494
315.7480197083348
315.72334884411197
317.3038496674407
316.2563892746971
316.4204274729905
316.9895758616749
316.2636131558031
315.81881819226885
315.64267808633053
315.6701350358097
315.6492488065123
315.8156344367589
315.6782206636007
316.02587379449267
315.8943792748283
316.1614209771452
315.9765784728167
317.2884347083012
316.71821534425396
316.22710559182667
316.03655708082186
316.19017734220625
316.32164122730853
316.18522565607395
316.0699761395636
316.7601567895986
317.0805271384361
317.0970685922573
316.57221735711016
317.00512349485314
315.9984790123696
317.1793296608712
316.7210766568969
316.1274835359898
316.1115472459858
316.0662819323904
315.6702330359295
315.6676048015391
315.72451773906437
317.19418452694526
315.3188112572562
316.4986084742827
316.77716345762855
317.18442522266065
316.66563605614937
317.0718186866731
316.34325218281634
315.9359185288202
316.0507943037566
316.1525671181643
316.5339469366261
316.7043127875472
317.0751102725737
316.8412335113124
316.24198396392165
317.1126475804929
316.92638809751946
316.54176461300193
317.09139706778967
316.12143688341865
316.032674564071
316.3745279688833
316.924894977527
316.59560465069234
316.9528993834205
317.14358929316353
316.9701730361162
316.2129121765044
316.47296159061193
316.1178104968748
316.4004502677182
316.6874735599491
316.36709949150685
317.08832092090455
317.05599291506206
316.7220174486228
316.41012994960863
316.1823181047926
317.0711152699835
316.6433575104189
317.04672583289715
316.3355032973876
316.3830376111531
316.97582367859775
316.577917381098
316.8106445561124
316.8952869463497
317.0869273472376
316.206209106043
315.66523693076323
316.50571516747885
316.86722728535653
316.9946898831959
316.8895150423855
316.25130711632926
316.98873326417095
316.98839273645376
316.24693137135205
317.0099321402335
316.90600379986284
316.29256994017106
316.31569237018044
316.9337174678933
316.51778426405883
316.93096979457397
316.8479793590336
316.59094015737315
316.58017236658634
316.8679772312831
316.526850118638
316.92487549005153
316.67227264556834
316.4495369481299
316.7711090183729
316.33593083324456
316.75107776811427
316.4426228347196
316.95626222465745
316.431750390543
316.88283651780887
316.7741416669137
316.3779478205427
316.4970744527597
316.84107511183043
316.7391885979632
316.76750197787084
316.57722660983455
316.63575334373684
316.47048359240574
316.5563708099489
316.67138435072235
316.68325509866236
316.6275945952391
316.55342190935045
316.5911175906145
316.04195541771213
316.1007365178293
316.05816064175065
315.9969400705271
316.16242794161616
316.04303620260737
316.00941474506874
316.0978388173855
316.0800335586531
316.0503044804849
316.0413687666321
316.15005243644873
316.1989689840782
316.22243347590694
316.2469938516334
316.38721144903457
316.45931888478464
316.4950701993291
316.50124842045045
316.6395860448524
316.72486237042955
316.77087508006565
316.7719140653514
316.8755068098161
316.9505272032734
316.9995433621074
318.16368060227046
316.99962517307756
317.11378048659935
317.1632683404457
317.1879798204864
317.17232091145917
317.25721529705095
317.29928580997654
317.3213480560722
317.29832219207856
317.3623341887162
317.39563836939385
317.4026101940874
317.37787615965624
317.4235312309787
317.4584647905294
317.4675387335191
317.44354849364663
317.4699532440793
317.5085128309877
317.5173386791894
317.49891641015404
317.5127327027061
317.55095927854575
316.0674166643724
316.0197417505846
316.1050193734993
317.3134794136597
317.3171878044296
316.1573760509644
316.1079053067379
316.20875891648365
317.514497535573
317.515735928786
317.3275241364186
317.47402098904774
317.0765596998515
317.14258379075795
317.38341707607464
317.00814173706493
317.0223702134368
317.2803447306176
317.537282270682
316.0877524796634
316.97890775031897
316.2196127690398
316.3256497614131
317.495129533585
316.68772021776124
316.7515334375037
316.5734645899206
317.4645987836535
317.4647858616065
317.4292741225238
316.1780285246838
317.22273529259115
316.780400136192
316.4966105651935
316.4295076994858
317.4455801291202
317.40067189842466
316.21569977990254
316.48226709139016
317.1787070753592
316.91587686009797
316.8189999376187
317.38782696180726
317.3988559245681
317.1816599531119
318.0925415245282
317.42243470416776
316.2634570041573
316.1228793900887
316.1033453500973
316.7616682631768
316.25589847430297
317.2774063081454
316.3275220545512
316.18085930613444
318.0585702332095
316.2211627084879
317.54432595550884
317.43595746687737
317.3349619793549
317.50361602770204
317.3616319102541
316.1614276428341
316.28966365837636
316.505286387867
317.42445568616756
316.1731856616744
317.5571411107087
317.44291309822034
317.5192652053226
317.5540302606392
316.99896795492896
317.4848078775234
317.2307441754375
316.62372644618665
317.5010038034143
317.5741060932589
316.71426153371266
317.38565411405045
316.84596534759874
316.78448888367274
316.4419252832221
317.04565443928544
317.18446355738365
317.95782007673307
317.5900301267312
316.1069466819738
316.21402800364945
316.17414756759126
316.2517624972731
316.3131576342715
317.5359415943164
317.2521508391704
317.5515627963293
317.4079898396246
317.57016749639666
316.19804777209214
317.44111811908044
317.4305463125155
317.5519083624053
316.4846999326044
317.42655949209876
317.3638311719243
317.49676311947894
317.46781292329376
317.31497983730424
316.5237282646665
317.50600494772436
316.8748217234962
317.02671444593966
317.3510240385664
317.3608561463099
317.49382551843377
316.9638678379251
317.4448879722363
316.17175407393773
316.385273738379
316.8241800340597
316.7977729872081
317.04989153459223
316.7527908140193
317.1584399700446
316.67000577262195
316.17117708591024
316.1793020499397
317.4932036404842
316.5872994189905
317.2232327478143
317.1958232104223
316.40141869639876
316.327544280033
317.2920776942432
316.303211995582
318.00321464116615
317.1063404013425
316.54834987134615
318.09598266243313
316.2552502481434
317.54274769298024
316.32807323756657
316.9069079323059
317.2146445207514
317.0757861139339
317.12651116724356
316.55468779060584
316.42547017068904
317.57557996778723
316.39644547684026
317.5625774230744
316.9270462427892
316.180759882834
317.6329921100815
317.5966377159635
317.4496149201446
316.54996173132525
317.3923200565732
317.30181375133697
316.7492822452059
317.5457830900097
317.4761359454881
317.6067343207061
317.07808355606784
316.81810693110253
316.6794106829368
317.902269642742
317.01354320596755
317.2046933208412
317.78729229876075
317.61511351696674
317.5904877193446
317.4056109097788
317.46824500633295
316.50140429328104
317.2708649353601
317.372246699164
317.27735227190186
316.70279419853557
317.5934087296506
317.48647375567197
317.54973271022743
317.4302675061124
316.57891501217057
317.05059180829966
316.77658243089684
317.1001780543169
317.23102154596654
317.32413147043195
317.53004131654154
316.84977937910793
317.5796191173128
316.44186822758513
317.4581766306703
317.95510452716456
317.8538773733025
316.29532007947546
316.28256010642696
317.4843206408253
316.3556665289955
316.28137874277763
316.29849117903854
316.91347691003796
316.4027470390978
317.25844311166605
316.5904776720001
317.138523292552
317.5404598373999
316.55135579748685
316.25010313706247
317.24907923717194
317.3512676301972
316.2961237903899
316.9562909308766
316.5519355791768
316.45255549624454
316.3509817986464
316.88493184066397
317.4037318349095
316.3419394376014
316.6303782961511
316.96686784101985
317.1673577448695
317.5099280603754
317.52309097737185
316.7744595118933
318.03284466691764
316.2944149318581
317.6396894493994
316.6127293800131
317.43633733374804
317.57510971289383
317.6635315386668
317.10582191311954
316.8927922941648
317.598164839358
317.7906860066532
316.4171458693846
317.6320757910556
316.8903189903998
316.3073115221238
316.65325472071675
317.40920613286244
317.67670485621716
317.5557331918729
317.1263984632043
317.6465862715559
317.06730066000154
317.591356180695
317.59058716250667
316.404334766405
317.8371460299866
316.7336552886631
316.83377131369537
317.7154235107962
317.49831293911836
317.53191497950763
317.3692902841673
317.48615021410615
316.6251783619713
316.5151573694592
317.21853221546985
317.16277513521356
317.3835085970522
317.46660588680686
317.01945847659925
316.46857500125134
316.5350800808864
316.41556528424536
316.92533968828724
316.54543179283735
317.19785110757323
317.61685877341455
317.3460111208689
317.5197007784434
317.4519046830631
317.2520064176702
317.5937371014625
318.0299792328589
316.55759097087156
317.6612803252704
318.05322651516224
316.9677092746331
316.43954119113897
317.3086817821428
316.3663341116802
317.3196393302079
316.9396144799061
317.50776957305743
317.6160450530923
316.3985773840018
317.6237573390937
317.2849984068328
316.50240215941915
316.68351102262943
317.55051571722856
316.4223777355401
317.8753942979147
317.62152832644796
316.8700427164539
317.6540864950455
317.4092747538481
317.6414632425739
317.48584337213344
316.46601444175917
317.01914058873024
317.5630454328003
317.69252573577864
316.8179090344966
316.8996175157747
317.44415123034895
317.6978918199355
317.7149005580935
317.7691414377902
317.655714626261
317.1162830108403
316.7041373580005
317.22227001317884
316.5342541959062
317.07394236936943
316.9736010267606
317.2555896686406
316.75723467098254
317.17170363415556
316.534246143018
317.93563198489824
317.5525116556927
317.5032346532426
316.66884580680676
317.67975878101015
317.64971877801685
317.5414792299339
317.63728930747646
316.67402176309747
317.4023250360757
317.5267792581303
317.9646269348358
316.64247941808736
317.5790580370634
317.2948187685062
316.5751086698701
317.974587886436
317.56205791271395
316.50514442732606
316.58326095418766
317.3405067425922
317.63154618662446
317.4924678703631
317.56509926476133
316.80065688248675
317.38976290336507
316.531818495674
316.99769059108536
317.4165135192111
317.4595133407742
317.75855390978313
316.8961198017802
317.7752599190439
317.5060036265111
317.35476451925945
316.9602956773322
317.75349809280675
317.5433014834975
317.4594655117418
317.1973089179384
317.0763000988472
317.5940297092631
317.73571330734245
317.54030866454104
317.52859798209545
317.2387415928782
317.9666023874476
317.0463723158628
317.43873570927633
317.50408803637066
316.5975857719748
317.64167991009214
317.1251519022752
317.8397317217258
317.3170225177866
317.9052289905531
317.37257178405844
316.75996090445466
317.6278501364133
316.7318445532596
317.31541005703104
317.5916867153443
316.85347352077855
317.6769722429176
317.590410078091
317.78549319044885
317.55447759080573
317.88266252184377
316.8120629698643
317.3377922150177
316.75681967031215
317.6513625144654
316.89198856950566
317.6069078395941
317.28457932337074
317.7006861272298
317.37026076059175
316.69163551314307
316.6770086459222
317.68613146111335
317.1827114201388
316.638150777746
317.40433336134805
317.41499219017453
317.05349673177517
317.3812113363415
317.67784212501647
317.9014219188174
317.57265469172546
317.825720501445
317.2991840966439
316.7773983221789
316.65651182498533
317.61215183978226
317.82100551984985
317.23811701757535
317.5289634661177
317.80080981808453
317.00202916586846
317.78734181296653
317.716370288413
317.514800175586
317.0928696796963
316.89292308706337
316.953642733796
317.75046163706213
317.7713036901366
317.82790802899774
317.7117275900288
317.2551471903651
317.69294667987