/*--------------------------------*- C++ -*----------------------------------*\
| =========                 |                                                 |
| \\      /  F ield         | OpenFOAM: The Open Source CFD Toolbox           |
|  \\    /   O peration     | Version:  v2406                                 |
|   \\  /    A nd           | Website:  www.openfoam.com                      |
|    \\/     M anipulation  |                                                 |
\*---------------------------------------------------------------------------*/
FoamFile
{
    version     2.0;
    format      ascii;
    class       volScalarField;
    object      T;
}
// * * * * * * * * * * * * * * * * * * * * * * * * * * * * * * * * * * * * * //

dimensions      [0 0 0 1 0 0 0];

internalField   uniform 300;

boundaryField
{
    inlet
    {
        type            fixedValue;
        value           uniform 330;
    }

    outlet
    {
        type            fixedValue;
        value           uniform 300;
    }

    wall
    {
        type            fixedValue;
        value           nonuniform List<scalar>
36979
(
325.062658015676
324.12648663596536
324.40091609646123
324.28501246937043
324.48289331433705
324.68719332681104
325.4190763322496
324.4443255093442
323.84997699890306
323.53099541468544
322.72600519453965
322.73835264615695
322.71527570339225
322.66812723072894
322.6322578480304
322.7689150120807
322.757788388963
322.73283899137687
322.79343666349934
322.7713083919939
322.80398131564436
325.19438484022265
326.6389369939434
324.24015263460944
325.0121864258251
322.8068837153363
322.7860649384714
326.4037191313085
326.13390694387823
325.5589730149506
323.97087183728956
325.52118103759176
325.77570649011346
325.99517830055817
322.72995512176175
322.70764624969553
322.6997625195848
322.67618718956123
322.7003058320816
322.53769132812744
322.46725013247396
322.6636140198187
322.6418727301891
322.6505156240773
322.66638306827457
322.64553728771426
322.6416875655176
322.6203706775171
322.6351047335059
322.52632911831967
322.488777860234
322.5720271646469
322.55595835387084
322.57264035823704
322.5953197919854
322.57745201872007
322.5753640277099
322.556771237128
322.5628667694247
322.50685535293167
322.47803024196566
322.4429665973687
322.43391263834627
322.48930594722174
322.5102963366103
322.49428613084416
322.49389754138633
322.47593841692674
322.4730016174902
322.43907587578485
322.41540028384
322.1706481040276
322.09080652701624
322.37812343105423
322.37995260598524
322.3646394915217
322.37720240427024
322.3610023361311
322.3518922755613
322.342746883549
322.3260722654739
322.26076847631583
322.24577604600074
322.27073783435594
322.2736962244262
322.26643882272464
322.2959825650793
322.28474206745153
322.25428494085475
322.24446603500434
322.32359014804194
322.36101710008796
322.43757083581005
322.4871646193609
322.53072850266557
322.57635500339774
322.60230550058543
322.65069476858207
322.66736220231087
322.7192800712119
322.7368379671636
322.79170538572174
322.8178445491864
322.77048157517623
322.7346289302247
322.6963536086693
322.6603553047375
322.6250900833476
322.5819053338512
322.54626212674356
322.4880260320945
322.4429627971868
322.3716232549309
322.3223586901728
322.25000359240283
322.67379827828927
322.6474268129331
322.83338660141766
322.5985133450915
322.7975401522154
322.71900840820956
322.74764630505194
322.56853040166277
322.5143469492397
322.4694229829602
322.40645307969027
322.34756807380154
322.2871445555444
322.23209845546705
322.2142412838247
322.7371964308792
322.74213796874204
322.5973485945505
322.4421012936435
322.24324778011044
322.19974592988126
322.4644256286181
322.3306253860278
322.5567880154424
322.6531207146533
322.79506681214235
322.45738021913
322.29290919907015
322.20193399766424
322.57097170304235
322.32055119782456
322.40443629932565
322.52235442956027
322.73569694269537
322.6389911228915
322.65305564447124
322.56974602346907
322.82689777867876
322.7122141429893
322.1728988797823
322.36616100852234
322.68024008696966
322.83899323381627
322.4717618076592
322.54794070474793
322.1623534555531
322.55320284018205
322.4191182582829
322.29194584879457
322.3107850963526
322.6283329438651
322.15443086023146
322.61457099785446
322.6547988759609
322.5212029896934
322.8429302211013
322.6157004827492
322.2570357373412
323.52711296606566
323.769558917555
322.40885476552637
322.709748350156
322.3717170702128
322.75377081895795
322.55354212264655
322.84640166995536
322.0806780493769
322.285185766012
322.403404092649
322.4262417875626
322.3347433474615
322.58763798688216
322.53082624112017
322.1418162755153
323.34967783213534
323.3571755482886
322.157602721454
322.67481048822856
322.2968522970238
323.15877064740835
322.26259156231316
322.5562614672263
322.44611996860704
322.89307186050576
322.7005147014833
322.7077220188056
322.4866742927859
322.2136086788788
322.9650283270496
322.49445950547613
322.619627995173
322.2357912157404
323.16613378434414
322.671112825187
322.1775435549981
322.74174737074384
322.3008743982177
322.51011187052933
322.77845889687404
322.62505315479825
322.16570355465683
322.7574049666132
322.60270726150304
322.1794016637051
322.3521771509964
322.6958946885412
322.9861965838006
322.475929831395
322.6995037254578
323.12642254759635
322.89299096194844
323.0427200126054
322.92031367125253
322.80043180117667
322.84259217777105
322.9095005869187
322.91665512849795
323.00115943274267
323.0120912893379
322.98008804383755
322.962147837577
323.06649879578856
323.0796228095808
323.1149633904813
323.12989544987727
323.122861741605
323.10352098921777
323.17220927537346
323.1868057204319
323.1837046259837
323.1950567841057
323.22046783534495
323.19938811073547
323.21185986974905
323.20424965581213
323.3209057911246
323.3216897223839
323.16961147050625
323.20767101755587
323.4131647208852
323.41940207431395
323.48423091166376
323.49235883086476
323.4526150931888
323.4450806571529
323.5426952257347
323.5527223629323
323.5933479823352
323.60440922705084
323.57790139542493
323.56840794784245
323.6360363496219
323.64642362357915
323.6629059664149
323.671186622361
323.6622749690495
323.65287205817936
323.6702250189604
323.6597738227262
323.7539253222905
323.7438333289944
323.50943336650676
323.58754102682104
323.83726940970297
323.8379550976253
323.8988992117098
323.9018748821823
323.85262879760586
323.85230098552637
323.9474116104653
323.95274548285795
323.9880983850236
323.9952881868308
323.96160209838047
323.9590657187824
324.0230508706324
324.0292554879328
324.0433133145741
324.0484908108756
324.0304630921738
324.0278895690979
324.034695312772
324.0296497980272
324.07878834291034
324.0611460394862
323.9287581120977
323.9311446159214
324.1582090552788
324.15678715569936
324.21112578214104
324.21288805516184
324.15785275576593
324.16367087073235
324.25109024493867
324.25379612578905
324.2833230580326
324.2863776852982
324.2523227858192
324.2533737610005
324.30823362017674
324.31160279865236
324.3216611655101
324.3257060464455
324.30781956428206
324.3056333074353
324.3105975659836
324.3104542581541
324.3179676211412
324.28577497703503
324.2594748326112
324.2439019463674
324.395417328906
324.3882741200112
324.4447342900221
324.4437179383594
324.38438188290803
324.3918680852229
324.47873789542973
324.47952275263043
324.50416675471246
324.50602989539624
324.4743314225348
324.47490669596215
324.52275591679995
324.5254215197862
324.5327680417277
324.5357547280827
324.51606824206027
324.5163498203633
324.52302160815134
324.52445505394775
324.49966605145727
324.46339761648
324.49209023158727
324.48200651862044
324.56972975225625
324.5567323721601
324.6195636152138
324.6170392740572
324.5469705919264
324.55924061680395
324.6512536475198
324.65071273519925
324.67394197446066
324.6742457255068
324.64181014881035
324.6441672509805
324.6896995755202
324.6911543662179
324.69826383682033
324.700449539758
324.6798449011415
324.68064158622263
324.90847256490684
324.91041840480875
324.92101558801926
324.92121453733336
324.85521435032615
324.8614094940667
324.8751382853748
324.8660062212437
324.90361488993545
324.9008570540111
324.6916036623857
324.6933970080095
324.6560610942272
324.6303282590546
324.669929584304
324.6629106029214
324.6884959492459
324.64065138283894
324.7919262329879
324.780738294874
324.81963083109355
324.7769907536826
324.80975846249555
324.80521479400153
324.8192955189812
324.81927702808883
324.82742685770177
324.8296232454962
324.7064431115244
324.6838874877889
324.7595530749185
324.75530697932936
324.66671241431044
324.68631369183777
324.8122622212552
324.8137832805634
324.7983986936806
324.8005028961478
324.8246558505232
324.8254145526177
324.77783908944883
324.78086752066093
324.745073386837
324.7509120612227
324.7892847993688
324.7887963393601
323.20007628438555
323.1807672315691
323.16771958606614
323.14862417966657
323.1502929267774
323.16564447552435
322.83565584775664
322.8313226219088
322.77900239357973
322.7474460116078
322.78108946786796
322.78168022805653
322.82979487651284
322.79035423162344
322.85587615451846
322.82357718710955
322.758486058278
322.7837976827883
322.8684551318944
322.8408345198383
322.86553774912255
322.83874763733195
322.81339610793276
322.8335142406937
322.84758804500314
322.8194178610155
322.81083773727204
322.78149971564636
322.7786638294865
322.79946180846383
322.7409655534874
322.71299164002585
322.6619867836104
322.63268323598
322.6508840250471
322.6682940307575
322.7248597327998
322.6734356773218
322.7723894313052
322.7266569694131
322.6271812238847
322.66489284749633
322.8118218812584
322.77459798164006
322.83748958929726
322.8050427619204
322.74725933735016
322.7734179033675
322.8498256198312
322.8183380540233
322.8459084218163
322.8142807149811
322.7816340091103
322.8050298586014
322.8157690045208
322.78667182168056
322.61535931295833
322.72304849227794
322.72975649327225
322.75097463239666
322.810593967746
322.7603641986042
322.8640242570323
322.8097585977459
322.69275922571626
322.74429504394163
322.82973518756927
322.86324270130876
322.76157213404525
322.80341191661716
322.9086170281533
322.8616290226151
322.7280281605032
322.7505679107795
322.8066734913847
322.82578818651376
322.79800526848027
322.8200461756706
322.7263138072604
322.74771060495374
323.06293180261525
323.0439369183605
323.21164329457156
323.1917285004141
322.600461767945
322.6281350082471
323.3623897613046
323.35723957155614
323.5204648243287
323.5120025653287
323.6262325552597
323.6164385067044
323.66887684719796
323.65901232226787
323.75522619374186
323.7643366553181
323.91360230817963
323.91143988275104
324.00071105632594
323.9985249364695
324.03950050263944
324.03404160164433
324.03715496126966
324.067246333465
324.2125978077812
324.21523780152734
324.2841414910434
324.283607732358
324.3161757665135
324.3114630297715
324.20090397291267
324.261314529114
324.43983488994047
324.44203116038284
322.6957313385095
322.7268664363056
324.49892520514453
324.4993175317418
324.5228236516209
324.52130224837
324.66425098363146
324.6657417549712
324.1752672586028
324.33687216916815
324.60894355996265
324.61355155375765
324.68705633999144
324.68603312510635
324.80965430238246
324.8103750155769
324.83279811191153
324.83385056896503
324.38329401067466
324.3791566087836
324.7450788286232
324.7772975297551
324.88873822127124
324.8920226614347
322.774701989374
322.79876481280365
322.7678785505299
322.79086520421293
322.6850054990558
322.7165552539323
322.98540721355806
322.9519668003037
322.8842241199553
322.91343164531816
322.94990875668964
322.91136714510355
324.8613153882456
324.1452649098259
323.6153702536871
322.64964053320205
322.5858533338605
322.36398240688277
322.39103819712955
322.3976336260297
322.68994735260213
322.73962202960524
322.45436699385016
322.5724349704442
322.5429191452799
322.7163274305999
322.63820927076983
322.6490038360857
322.7060507023069
322.64172495469046
322.7365134756806
322.5970649789348
322.6338647485894
322.7246559009033
322.7367631611558
322.47239732359463
322.6048291800624
322.80494227467665
322.671304300544
322.67560684291914
322.6030265706574
322.636326802243
322.57634382130755
322.4150553263155
322.6805994306149
322.545629580429
322.68134970211855
322.60378155620214
322.664347940386
322.67104654833673
322.68595348153616
322.627315532335
322.6804718205116
322.51213432491625
322.59979990645036
322.64389943824995
322.6152325321134
322.5549187157745
322.60205128778165
322.6239737591678
322.6074363538688
322.60921403207726
322.6308563857377
322.63544448244613
322.32456498374887
322.40266674525213
322.63328543811394
322.6294111508037
322.52612378987163
322.40419605537335
322.54594994609016
322.41960758682205
322.55670724100327
322.59701752443124
322.5128782690475
324.67505295889305
324.67075579502597
324.65140864261895
324.6060860349484
324.52510566191216
324.50541343618977
324.4796603400147
324.429498518896
324.34108043115276
324.2935711467442
324.26220178084685
324.19504420635
324.0918904447319
324.01733004699804
323.9640211812654
323.8914004565983
323.76821198033986
323.64621885681277
323.5678657816383
323.4695279947771
323.33699961961895
323.1848174585462
323.1284224769805
323.0478634985079
322.9278773100558
322.74780498236095
322.75886726577176
322.7711292332146
322.633202098387
322.322853888377
322.2850848896478
322.3052122035564
322.4061371318446
322.4504007153312
322.5362544386332
322.55357653801457
322.6296865092724
322.64171138243444
322.71301978875147
322.738459039556
322.7854090007084
322.8175131721361
322.858022626491
322.8843630690386
324.8715225550953
324.80410206152436
324.8057379542402
324.78618858090766
324.74607521779944
324.2836862887092
324.83975732056575
324.8826986458693
324.03342195059747
324.1500830871045
323.99981809458745
322.50730299566004
323.9216634468245
323.8341966611436
322.1734919230492
322.37221393979087
322.4189400074654
323.1567179036112
322.2789445219835
322.50477558389707
324.5013939542715
324.5706660506205
323.24963366465556
324.496366845446
324.63328953997916
324.8010044321594
324.79907631136297
324.2314275970851
323.41130279224274
322.54857336513714
323.51845510763746
324.45784555521635
322.7742110291686
322.73565001712274
324.66328140292467
322.8356019393934
324.66615839324254
323.6130329969724
322.59651016256703
322.64293963264276
322.75339599493583
324.7148045378328
324.7675362774583
324.3920249642677
322.9967992033885
322.68193762284614
323.69353529837326
322.8311347941866
322.87185355382746
323.0899975882314
324.29796902814365
322.80435552036005
322.7306593442676
322.7584019799718
322.69469217253067
322.3694449041174
324.2331006504189
322.63619311607107
323.259214364227
322.88011118748256
323.87726463004395
324.72898426049755
324.2461602699992
322.67167648318923
323.1918823508173
324.70948761653807
323.8227267501911
322.8661465628979
322.63828206694205
324.7761390880196
324.12095890671014
322.4877805808164
322.99577950242235
322.76077657827454
322.7947938525608
324.39481924539473
324.3331635179024
323.5260026817127
322.8574401110133
323.1053787042885
324.4939616945021
322.3834935367159
322.56251255320245
322.7227142882717
324.43862421060305
324.2701514162059
324.60947559459146
324.5473707054679
324.64409074962737
324.6702638663036
323.4184928827213
322.7506373591732
322.83670015959837
322.70587891806156
322.70695389433234
324.15940970434934
324.7691482024004
324.51801642041715
324.57803204705317
322.4585557431234
324.62535615596363
323.3292124371987
324.7512860517051
324.69901220179327
324.64878358135894
323.58758037686357
324.41823388482254
324.46205908350413
324.07451707022386
324.36652900028747
324.48374177124066
323.4647681496874
324.2982812219139
323.05047991576276
323.39125471652727
322.794413668571
322.52735831852044
322.7883289210724
323.1370800621355
322.7392624349562
322.3555793451172
322.91643681959084
322.9693131820259
323.93123418239077
322.8778088712623
322.7374597404104
322.5931690393678
324.7968012907819
322.56988777942865
324.19658358322505
322.4645822959542
322.50288279440616
323.7473997008765
322.9727409385507
322.2865945697815
322.94859529246844
323.9904411508306
323.76963259504953
324.8296643593146
323.97426817138313
324.60463779146943
323.64468553315766
322.7185756063084
322.27474060309555
322.9190705465562
322.3098495710054
322.96709019924674
324.02576082260083
322.63893301875106
322.965962035094
324.55703545571777
322.8764727938179
324.5937054426362
322.69461438696646
324.7717724835302
323.7020406230623
323.8421458692324
323.7008210960369
322.8605154766308
324.21009542450196
323.4068005362954
324.3640768307553
322.99347945089517
322.4619806927959
322.2351175494096
322.51994976615987
324.32343766477015
322.9275872862733
324.27202020841105
322.75488305654676
322.4756410220659
324.7362444546812
324.16918814295565
323.493792526009
322.5503112086588
324.39449055740926
324.30793113511334
323.0359957752312
323.3429076291427
322.9728484935114
324.3558864606806
322.7973291954698
322.3771382384774
324.2503804626652
322.7292167049382
322.66814624709104
324.7194909735149
322.9495221493055
322.87530931081005
322.8292204357068
322.5938883434994
322.196786459768
322.435008120173
324.54286264360644
324.61254535823576
324.4404066404444
324.72354170192426
323.3229910594556
324.64248460746063
324.46933452304347
322.7127778299808
323.1763513127796
323.9916734493085
324.0778620602762
323.10865139569665
322.9864193863412
322.3376061637806
324.4746467365998
323.0858136894165
324.0421548426853
323.2459551555789
322.70061957725807
324.11033418056945
323.94390076800363
323.1089501354189
324.65852777635644
324.76014009865236
323.9196891703784
323.6366399421119
324.52134016178627
323.06041436560855
323.7092546831918
323.01594007157075
322.3245514140426
322.2939846784151
322.84369541796264
324.68448936046553
322.7329626756553
323.6301252018676
323.57344267850596
323.0893009652558
323.36894393064006
322.64220661768184
324.2662399018631
324.1888532111689
322.59895961811196
322.5678874076242
322.7607686457898
324.49378453362147
322.7305809811026
324.03985040473293
323.12295436857
322.46882629696347
322.45372913617217
324.54335148522256
322.69379741290084
322.88476027072346
323.56552322562254
324.44886953414743
324.118264820412
323.98692402255796
322.969732938765
322.9601544152008
323.0519289079681
322.7154699773737
322.6542006033214
323.17577387045355
324.235716895849
323.35637136089645
324.55143726925024
324.348113569871
323.070467129174
323.95053699076794
322.7998614968655
322.7255823164588
322.62574991640156
322.1555016627837
323.2561669337903
323.0066700945737
324.4070664816952
324.5631785033941
324.01679570456344
323.89082104433044
322.9037997169183
323.14723248554105
322.8744742150775
322.819336603418
323.2084540649484
324.4536090175208
323.4864109979988
324.28870151538064
322.3311155050888
322.2498844075635
324.6283450341542
322.6216518025438
322.76110310858286
323.82182965837416
322.6129740947452
322.07404059524725
321.99002082387125
322.05585798577795
322.10405229842365
322.2242175349579
322.2859048529533
323.21014492484744
322.797232359248
323.3024128730337
322.31946128659115
324.59465992287596
323.23156783670305
322.59182927611255
322.3228374183653
323.2877604663267
322.6822947130699
322.53460130012
322.83881065744066
323.4128752320538
324.12096259425147
324.3075890401288
323.03184480369384
323.9786336546282
322.57953607540674
324.4649757395061
323.4298980040024
323.10661181508976
323.1098909912644
323.04134461489934
322.23664314887105
322.1956867470621
322.2201850040322
324.3793111926954
322.08959742765313
322.91787117260697
323.47568370632973
324.445107205325
323.4699563434863
324.08518222470553
322.6788223435178
322.3935505490237
322.73569380518603
323.1951462554339
323.6730947213096
323.3042190442411
324.137799060533
323.6215231141576
323.2255132349038
324.3013772603219
323.7661167547599
323.06200657903656
324.21486130982856
323.0521249633385
322.9604593534136
322.76279608977705
323.9516238344899
323.08750444110586
323.8502856457291
324.3054450988789
323.84693153101887
322.651799803174
322.8901221646979
322.61247286524303
322.81864588900896
323.3395156219115
323.5228587210788
324.3900998625626
324.2989429121599
323.44648467071454
323.6279157949431
322.81775562513155
324.3455587190306
323.2365705559387
324.2542669327557
323.4322741348555
322.86008463374037
323.98319469899576
323.1228468241783
323.615798578305
323.8441847189987
324.2695307204176
322.976399606146
322.3592076020113
322.98869441047384
323.76761008926565
324.0426571440113
323.7520486337197
323.184118279386
324.08765687799075
324.0524527343876
322.83073519913535
324.1577268523387
324.1583820797947
323.1728863399572
322.8689313979211
324.15785361218445
323.0407652830979
324.2162741833763
323.8263954967425
323.2620126186941
323.77708587505373
323.8906078013685
323.1078698021872
323.9963528540298
323.43336061408934
323.56871125172523
323.6952830995617
323.0623494985706
323.5960948964107
323.3055714067876
324.1400938118697
323.48106912323726
323.9946799668032
324.0105827482943
323.3337780890939
323.20144593641817
323.9823355223397
323.9079122735774
323.820347749302
323.42141130845533
323.79286372919006
323.2503641769155
323.3312999950563
323.63576693184257
323.7934570778703
323.5473046125456
323.50415896413887
323.61120241750405
323.0756869973681
323.12270316050143
323.07844736451943
323.03102448977074
323.17872855014696
323.0127655278754
322.9802075632779
323.0615816973603
323.0082413324244
322.9379412318444
322.86923845261776
322.9206055687249
322.8964089374702
322.84408922003666
322.8148730540941
322.91144796912596
322.93286892669477
322.91752344664627
322.91684336593886
323.09130969555565
323.20624119474076
323.26601655899447
323.29937995907045
323.4603074628754
323.5928611357051
323.69040801968066
325.7352603537726
323.7209327662575
323.9192481118918
324.01341075311615
324.0707466847402
324.0707178393557
324.21413222506675
324.29501137111174
324.34774362097727
324.3333968981282
324.4468116646074
324.5157255424688
324.5459267284916
324.5289955992618
324.61194787821086
324.6784814797811
324.7094269564584
324.6962027223451
324.7473564664149
324.8126946618509
324.8397163776441
324.83217131671256
324.8633900597087
324.9229857194628
322.9771138982655
322.8757882408616
322.90761855627267
324.32598490031546
324.35163203758515
323.17184474383396
323.1280801259772
323.22648602307936
324.828499618905
324.8451544415935
324.386120671988
324.8090926418741
323.85482456265277
323.9724240248283
324.487586675916
323.71624489789036
323.7677678782378
324.2575314208121
324.9001245976542
323.0334280935674
323.6475318405953
322.8099733410909
322.87168391948404
324.78748994015905
323.15636153553874
323.24022773063297
323.0058352779231
324.6964568675419
324.71466384381813
324.6865235171711
322.9123148893858
324.1539649726449
323.2868568733311
322.905688592496
322.92940144776367
324.65138708664847
324.5334565429444
322.87552280542275
322.929561721947
324.0464671081245
323.52916177355644
323.37525865491193
324.5525070441221
324.5496353221741
324.0728573529067
325.60248990867916
324.6499635656807
323.2776352515027
323.12996533852265
323.0847925103046
323.76657096459996
323.2645849986376
324.2381862836041
322.97016453150906
323.1113779452268
325.5599778662489
323.0282370012318
324.8560172967033
324.5905198866402
324.3492335848576
324.75345380744807
324.40819279110775
323.121428295258
323.0031001975522
323.0291505835114
324.54580281034276
323.0585155766688
324.908598901214
324.6195609514767
324.80744383099426
324.88975135562015
323.68361726542526
324.7017201929029
324.148885065584
323.1020482824949
324.7697590634789
324.9431509186026
323.220355063797
324.46934046399446
323.4064246439516
323.31390053024154
323.0203855868484
323.77563485566407
324.04450335743746
325.361680794415
324.96691113037264
323.10380579373253
323.2127485324394
323.1212858841901
323.0249203760661
322.99164614644917
324.8365654413156
324.19043427257407
324.8945611372009
324.51131798265317
324.9315769519283
323.17473721808454
324.6070003832701
324.56585729229215
324.87927738650893
323.03823437053876
324.5702340934813
324.4215166983461
324.77291085470375
324.6694793134874
324.31008278552645
323.0240475867857
324.76620553012003
323.46034666176126
323.7367771497179
324.382669192314
324.42614082375087
324.7242698842304
323.6179204033394
324.63154945865676
323.0282147682889
322.983784783996
323.3676985391957
323.325102289766
323.7905431417342
323.27239216456053
323.99484251042537
323.16130578243923
323.0005600012124
323.0895007503274
324.73302180989737
323.0585423851527
324.12849207443173
324.0692118663473
323.4234636776323
323.3470516604683
324.2684811032015
323.32080601110073
325.45471606856137
323.8988670507354
323.03212097789486
325.62473884122176
322.9931482187176
324.8622662634382
322.9384783323499
323.516262259631
324.1061565619313
323.8413622840948
323.93708853216054
323.01766452308453
323.1290428131292
324.8850505757365
323.13490869409424
324.8590670964638
323.55078759787256
323.1702665824524
325.0159366115908
324.9408838400607
324.57084201966217
323.1669904831441
324.4460545277852
324.2694564635187
323.3019845518417
324.80629614276603
324.6447041367605
324.96704855936645
323.8333972747954
323.395309542976
323.21652775922104
325.2933804036386
323.7128985763291
324.07556126299136
325.0966886870762
324.9864019140509
324.9245071021571
324.47634160834974
324.6100837385627
323.14058745815333
324.4424940649087
324.4066985124496
324.2209624928287
323.2355459848054
324.9448533135017
324.6705224928308
324.82345407408843
324.53213657987055
323.1592053561607
323.78213963527094
323.3330083401968
323.87646743204397
324.12679650040315
324.31461497907674
324.7743383780275
323.43263971201065
324.90151564342085
323.1019353762498
324.61003278758307
325.389128410165
325.20866768033335
323.14433893754676
323.2745964821317
324.6798545571242
323.1281847623077
323.234082132882
323.2100469749042
323.5328675537015
323.4209598511355
324.18090845275566
323.1335498865073
323.94957997602285
324.82342285743437
323.0889789439061
323.21587100350155
324.17171599736747
324.36603283186713
323.23084334886624
323.6097205893808
323.589576137915
323.47961477459205
323.35690897300753
323.48563596890443
324.48469734918024
323.15860021848704
323.1626650963992
323.6254954804226
324.00543402154375
324.7230164382055
324.75209932542924
323.37578822978776
325.5433539458587
323.1781077500327
324.99603349977536
323.3013534064981
324.5157129886633
324.8319518548953
325.0421033201009
323.88961723484385
323.920099401341
324.9032885920799
325.1156396316538
323.35798760692245
324.97500923324066
323.53725673285805
323.28918189349
323.31649393197415
324.4642844713155
325.06775540778733
324.79643850911384
323.924902263257
325.0143121574512
323.8202092802571
324.88256537500706
324.86597027365514
323.3665169044238
325.18853925335907
323.33995997171195
323.45563806784776
324.99844933838386
324.66363435983374
324.7380738077186
324.3879968581284
324.62259530492497
323.6713499214161
323.2870993469272
324.0980127497883
323.9923333988182
324.41777403437965
324.5855877040951
323.72951937899387
323.2627064319473
323.565720684549
323.3290285342138
323.57885404850543
323.27937313140853
324.05814167019486
324.93604500388903
324.3423156372369
324.70592834491237
324.55224166325826
324.1609833901634
324.8487550024613
325.5171620977702
323.25495693878173
324.91814329438165
325.56178226292104
323.6397056293451
323.3043076067203
324.26806177331696
323.342022837847
324.2926171748045
323.59171950991646
324.66407544863915
324.9469374869341
323.28337732408846
324.8651362867149
324.2222570282589
323.52145331896145
323.3025761076699
324.7774805040464
323.4203473236171
325.2520364858876
324.8947076553695
323.5592057848282
325.0353788073601
324.6328535201013
324.87108632407086
324.59685866762305
323.2992015992385
323.73793918061847
324.79930296264837
325.0637447865166
323.48241624701257
323.6218114038076
324.5202905863501
324.96839924136776
324.98395369663774
325.06131087890213
324.9178072334369
323.92911687943075
323.45639747973354
324.10497764797583
323.4811629492967
323.84543129043726
323.6954253257083
324.16885316108346
323.4781275096784
324.01496662359136
323.5105544256092
325.357662607753
324.74004821650266
324.6367342373269
323.43214249224155
325.03381036376356
324.985565996841
324.7248321119432
324.9315421488952
323.7180862452038
324.4455656865726
324.73303702566847
325.4093429350269
323.44977662538366
324.8053772283228
324.2446159161046
323.46897932204234
325.43188444730686
324.7895897138458
323.49743392346915
323.44435102047606
324.3221766716589
324.9397180248299
324.62858942205276
324.77188143329806
323.4880985284926
324.4167478414886
323.44565808350285
323.71106152636816
324.62632800793165
324.6663293831085
325.0523043063527
323.6347221457663
325.17942659997004
324.6232913788165
324.350897179895
323.74080523298454
325.13987012945665
324.6934708521051
324.6172287740705
324.0790520521587
323.8602231065673
324.78080316510864
325.104009131528
324.7099927972289
324.8245828473741
324.14142004067696
325.4286856298606
323.8536449524998
324.5041751814785
324.64382701643234
323.61657492374405
324.8545639392162
323.96443228629374
325.19391405977586
324.4937736444687
325.320337227508
324.515304003126
323.5987373205716
324.8759545892193
323.6550677307793
324.2853471068334
324.80018350621657
323.6614541618213
324.97464147599453
324.83437825372687
325.09482002827724
324.72184966893786
325.27190300034664
323.6393561267379
324.4405428289979
323.63890055685226
324.9239783091761
323.66901020399905
324.8344583919831
324.2232041893271
325.0478198744695
324.37673625652263
323.63541123519957
323.6910971239242
325.0040820524577
324.33176294480694
323.5929129444795
324.43692637974624
324.5955295988841
323.83364297717077
324.45585633805234
324.91403515695777
325.32348530032493
324.7370262648258
325.1875411177849
324.25807046729557
323.8257703537129
323.639381635965
324.81034477834305
325.22612813347314
324.16206621264735
324.65770298398337
325.13587420882607
323.8314008644472
325.1722357527373
325.02161049528513
324.63704273441294
323.9632473582907
323.84971151591964
323.8427548561717
325.04484046380645
325.1372722519683
325.20545175681065
325.0506489154223
324.390901259627
324.9727073113607