/*--------------------------------*- C++ -*----------------------------------*\
| =========                 |                                                 |
| \\      /  F ield         | OpenFOAM: The Open Source CFD Toolbox           |
|  \\    /   O peration     | Version:  v2406                                 |
|   \\  /    A nd           | Website:  www.openfoam.com                      |
|    \\/     M anipulation  |                                                 |
\*---------------------------------------------------------------------------*/
FoamFile
{
    version     2.0;
    format      ascii;
    class       volScalarField;
    object      T;
}
// * * * * * * * * * * * * * * * * * * * * * * * * * * * * * * * * * * * * * //

dimensions      [0 0 0 1 0 0 0];

internalField   uniform 300;

boundaryField
{
    inlet
    {
        type            fixedValue;
        value           uniform 330;
    }

    outlet
    {
        type            fixedValue;
        value           uniform 300;
    }

    wall
    {
        type            fixedValue;
        value           nonuniform List<scalar>
36979
(
334.94135930160223
333.0234061083899
333.3947562054448
333.05090395074325
333.4484829414815
333.7429645953842
335.3001049317494
334.10010127975954
333.41758051663174
333.02919938600706
331.86741852581025
331.8973511522803
331.8623064525637
331.74626791015254
331.6855861217829
331.9367993262072
331.9214565224845
331.88304600143397
331.9858214276542
331.95200295231876
331.982988383298
334.35732176296847
335.71403416649645
333.8548756132017
334.1697508393833
332.00239427880234
331.9704134859102
335.38110902388274
335.2692454192209
334.77275658004527
333.53891868713976
334.73352093278146
335.0125563691787
335.0420611929698
331.8872830779251
331.85327799179066
331.8343353149836
331.7983036081846
331.82814033831073
331.54767869260803
331.429294008051
331.7672950629018
331.7342643229515
331.7364714280415
331.770369659201
331.7384555285448
331.72628968139173
331.6936577631103
331.70222060469484
331.53559518694595
331.4764438662285
331.6078955560357
331.58319472772956
331.5915483353903
331.64592606464225
331.61827044020424
331.6175328053164
331.5886494179697
331.5740645639214
331.5158706472419
331.47091862681174
331.42558129980347
331.41270769702123
331.4712772129599
331.5488455661449
331.525495283369
331.5448149822828
331.5187611279975
331.48235006958146
331.48669947080907
331.4518381285162
331.1104811427085
330.9904391572228
331.3934825966504
331.45418120698923
331.43010238837263
331.48261892971254
331.45648167704366
331.4196482861215
331.46266587693395
331.4348757397046
331.36085223308294
331.3360261260207
331.36491072039615
331.41973007086955
331.4081529457439
331.49280446818966
331.47396838014146
331.41895150563585
331.36204535380955
331.4124651028256
331.3992154945307
331.45394309387245
331.48344603958475
331.5271988069523
331.5953748348245
331.6436958066128
331.732959853811
331.76903899632566
331.8603122707291
331.88142283124444
331.97155012686875
331.9986082317259
331.92952928826134
331.8733154016447
331.80704557319496
331.73504391744683
331.66087351968764
331.5810727073179
331.518641710573
331.44535975137785
331.41980102452925
331.37898368980456
331.38173634793657
331.3549324501156
331.7645155284269
331.7052772406009
332.0169076963826
331.6117422687569
331.9706038140565
331.84681033910545
331.89414734671874
331.55614817120403
331.4731237333338
331.4353039739932
331.3968427829509
331.38031189954114
331.36911229273534
331.3730261532184
331.38607973674476
331.870214605038
331.8774724970634
331.5915913426523
331.37064092124626
331.31326054460516
331.35118697916636
331.3688277225799
331.31317135970306
331.50856423434726
331.7037572772535
331.9581954777239
331.37869655018807
331.34113869175104
331.302647327276
331.54340857831045
331.34408116593465
331.3504901341809
331.4494576464541
331.8623285364974
331.6678066067586
331.71646809890456
331.54020032959653
332.00499480982495
331.825397138725
331.35167682420143
331.33190777166504
331.7684533706977
332.0190554622657
331.33930814952316
331.4604370732597
331.3060737561285
331.490602049154
331.28153157831775
331.27839862959445
331.2255148596441
331.661906986678
331.1921180667594
331.60324236112723
331.68368225423376
331.4470127513271
332.02139697429357
331.65459246571834
331.2967643633285
331.9475311690462
332.28049322608064
331.30461383894317
331.81050995624355
331.16053879071865
331.876934313252
331.4287726139795
332.02483514471425
330.77262792303446
330.7390975619477
330.7588179981344
331.26319314523846
331.20472037110864
330.5210486476444
331.4299516841169
331.0171298666767
331.48758138812315
331.9471572259181
331.25628176106886
331.68478156381906
331.0006691296857
331.38524523358853
331.2476820259038
331.53936706016367
331.3289516183765
330.74681895320924
330.9398081428411
331.79169924948627
331.2871446676018
331.25249101862727
331.4438399885776
331.2876873363122
331.52422202674313
330.9995937949117
331.9387997502231
331.64164736417104
331.16050713689367
331.77249540485394
331.1995165683389
331.0832292167171
331.87283430339323
331.66409243872283
331.21031055694635
331.45107144393273
331.3578737734478
331.07625505221523
331.1399199072535
331.55383623298735
331.8601570225729
331.2163955389034
331.64048754110814
332.1787724925001
331.99654089320273
332.19509544862586
331.94893340608394
331.8060329872989
331.76845791967287
332.9409508234361
332.9483324144859
332.98306689087997
332.9953492397402
332.97661373167904
332.96588931871577
333.00394242156614
333.0180321719673
333.013323375898
333.02904211304076
333.03891320139775
333.0225251289318
333.00401245652307
333.02076468204694
332.967175805363
332.9826569116954
333.02836920143795
333.0096114903166
332.9211666953926
332.9123576735756
332.977583157201
332.9827703348409
332.8089864740503
332.8717004437144
333.01272235929116
333.0255676807282
333.0248994658084
333.0397658153085
333.04586660156525
333.03205292930613
333.02445485421794
333.04146409860675
333.0153377393239
333.03446660085467
333.06245254157875
333.0426008594289
332.99686010067904
333.01725635203604
332.95951505412955
332.9797025239883
333.0346998122942
333.01157281327454
332.89898695373256
332.8957892573651
332.94670406907375
332.94635689339407
332.6945462460641
332.7875633633266
332.9969317678852
333.01400040918105
333.025000562395
333.04638910332125
333.0517852256222
333.03163703388225
333.04760560387234
333.0711892657255
333.0727167842611
333.09732335798225
333.113176877248
333.0878668235918
333.1019538357598
333.1232113058957
333.1205893932689
333.1388223883873
333.1590435706333
333.13679543112227
333.10917494720735
333.1132181424247
333.17311666791966
333.1608649225464
333.0172588433416
333.0044152057821
333.28887448641507
333.2985069109849
333.3765614274025
333.3908853219989
333.3374806036989
333.329873707971
333.4571410724874
333.4717165001903
333.539108118402
333.5514478145507
333.5089044011215
333.49683728842933
333.6188004632633
333.62894269877404
333.68578892735854
333.6950689847337
333.6571454769557
333.6451262162097
333.7210441246224
333.7235990831047
333.7786206009593
333.73868163422463
333.68095947239266
333.656606288759
333.9246704425149
333.9156856676097
334.0323724910379
334.03043126675266
333.9240165785549
333.9330580826399
334.1163029416283
334.116409517665
334.18382925179446
334.1856794108358
334.1160656120906
334.11723897281684
334.2378780712844
334.24130682089066
334.2780863731521
334.2820985629774
334.2309206087135
334.23241996624654
334.2910871804094
334.29301415725877
334.28449987790157
334.23833565118855
334.2508519454554
334.23912979149026
334.39527312293666
334.37880770641635
334.47772026957597
334.4743585352178
334.3612764843001
334.37925965305016
334.5328243291323
334.53180661682006
334.57085691717697
334.5713367215559
334.51196534886435
334.51701032246456
334.5946860852804
334.5976568927298
334.6060795139874
334.6107231596683
334.57418735550345
334.5761185410715
334.7577537764201
334.7548270554112
334.7663195677453
334.77285652956647
334.7162493503543
334.71944299852873
334.73608610085836
334.73042048662325
334.75889947680946
334.7609722919545
334.59621058128783
334.60071817358175
334.5480007975621
334.5177131591852
334.563631535501
334.5540981201802
334.5306222796798
334.46649327310706
334.6564903263522
334.6483221099666
334.67855194308714
334.6314255382874
334.69393515278074
334.6843693073803
334.71612065369777
334.7127642499239
334.71377140388074
334.72155303242505
334.60906394538966
334.58311610899034
334.6726228742099
334.6702418096894
334.5547955457142
334.5790280106978
334.71648212225443
334.7156866661801
334.7071851668472
334.70754988459066
334.73263245876103
334.7376920902867
334.6878796911579
334.68983105887855
334.6511985004092
334.65733492332424
334.70448978209055
334.7073523726669
333.04555658895606
333.0286116329765
333.0471157653613
333.03045164434747
333.01455227175586
333.0310643384552
332.84907446266607
332.86658037740045
332.84027906283
332.8295812626878
332.862513345525
332.85671713902013
332.94392529746403
332.9240825927533
332.9699932460614
332.95175881415145
332.9210447459865
332.9387699945997
332.9753010280193
332.95742060443825
332.9705683839557
332.95182503121146
332.9388551065993
332.9559450035088
332.9572221838235
332.937049008615
332.9288404042553
332.90877852118433
332.9088688376592
332.9279627726633
332.8587581803559
332.84613831460183
332.76891853542844
332.76661062564017
332.8121307060004
332.8205104492386
332.86754740505353
332.8393832084293
332.89970221772535
332.8726247208227
332.82773467645893
332.8508319709925
332.911992050978
332.88799122653523
332.91351038935744
332.89127989115065
332.8671626130809
332.88782447214453
332.90693420939465
332.8847019759015
332.8876866024296
332.8662814431738
332.85725219503104
332.87710771587064
332.8370386587516
332.82378860338923
332.52389571665026
332.7303001396969
332.79374340245255
332.80378782829496
332.8043730215296
332.77676402205674
332.84392964784644
332.80598184356205
332.7550796784005
332.7867168917954
332.7992081357233
332.8280078596872
332.7756787508012
332.8073303343751
332.86034283469684
332.82377585328396
332.872518681925
332.89190252109944
332.9295954871156
332.9468565295263
332.93827078734387
332.95518434231354
332.87458021750655
332.88997988176743
333.0191888404779
333.00417200684007
332.95465505973414
332.93580061630263
332.79638100329737
332.81052629530603
333.0032615601977
332.99635612863756
333.0598531849526
333.0428354535621
333.05532481145843
333.03357969971205
332.9770538340782
332.9511251422942
332.97340390208774
332.9686473095347
333.0868683875903
333.0623236944246
333.13742762346334
333.11401030366653
333.162195640506
333.1377373080934
333.1660596497494
333.189834596292
333.4292006425226
333.4180433670702
333.58571747654935
333.57356073151624
333.71094461013297
333.69795279610673
333.6471743115143
333.72268967644635
334.0350352351149
334.0380067414643
332.85467560696475
332.87653767079297
334.1801337790409
334.18143245521435
334.2659476791041
334.2651334126509
334.5493560898427
334.5528132592084
333.8675101822394
334.0755845489779
334.4569715893019
334.46525726001306
334.58556020966256
334.58432334808157
334.7226678880804
334.7275332525207
334.73243920472123
334.7380876059944
334.19493688196764
334.1889435358467
334.5901669996458
334.6262545386286
334.7458109648031
334.7450347586976
332.86739513549537
332.88757423558144
332.83485025971765
332.85285310275356
332.75444002062625
332.7657549910504
332.88900257830625
332.8615225758006
332.8219743858888
332.84838369326576
332.87555037802304
332.84432035346316
334.6575893637995
333.7422736685599
333.1600863555217
332.7966834582813
332.7757985649467
332.2745674235622
332.37088574081935
332.3211477973923
332.8125230010498
332.8090744972647
332.5204412167245
332.6608382485284
332.59177343370527
332.76685740388984
332.69472802527093
332.75657893931
332.8337621484147
332.7679071668659
332.6984776604631
332.7681809170429
332.7979832598765
332.81564423089134
332.79275343301407
332.46241350293445
332.7013420163658
332.73553523713935
332.68658818676414
332.72831132913143
332.74840485751037
332.74433311725676
332.6343548515838
332.3393780504872
332.7058425992762
332.4282480487998
332.73685606538413
332.74307234650735
332.7420920185621
332.69678784944625
332.7238683348788
332.61018989327596
332.57566783854935
332.51054705313436
332.70508085226106
332.6580657440872
332.65078311216894
332.58111769482025
332.6833289594605
332.62405148842277
332.5093332286882
332.6652153927777
332.6542804424576
332.61599354485145
332.1809707622371
332.3595881695967
332.4896203823703
332.5866834361389
332.52140974800466
332.3341338284407
332.5613290096694
332.23899501731637
332.5033309065197
332.49874451830595
332.3758498778472
334.552492214446
334.55173182664674
334.52437874943456
334.4468130855194
334.3058791442782
334.23641657588945
334.14794016878744
334.01559189248036
333.81578919648194
333.6587764341562
333.52221884636265
333.35540095654824
333.1887632100793
333.08454485756215
333.0270753582793
332.9873466740011
332.93484523820985
332.9095948267169
332.96302386750784
332.9844903353985
332.9592784145717
332.9207021986844
332.9674826486075
332.96522973186666
332.9259945901636
332.84029768052517
332.89119441208186
332.8861671947127
332.7325593669251
332.3467134733236
331.4711959449873
331.42636556672153
331.5047603493977
331.49898369360056
331.57219436254053
331.5668553748979
331.67468679091485
331.69520958773967
331.8197125184637
331.8681480994922
331.9562078243848
332.00492183820705
332.070835599357
332.10429690406903
334.7139094193633
334.6482428769974
334.67746792796703
334.67145135099537
334.6355383169567
333.59759775629755
334.6809990454921
334.71247007757427
333.1066998920363
333.2761648476153
333.0649837819655
332.60695345291293
332.9926080654875
332.957036887803
331.239751711654
331.49491041939456
331.4858374419107
332.95237821675516
331.49974847257107
331.5489651251211
334.25496756126546
334.3838543299014
332.92496493945
334.1977750983123
334.49492831977506
334.6821708420734
334.6555838201409
333.43725322748634
332.9801462383385
331.57152488375453
332.97624529872485
334.08851502616704
332.89458348965474
332.86910892178133
334.5411538935138
332.8785136820716
334.54449132434524
332.94276667192247
331.6278020942387
331.6956742342997
332.8717640065166
334.6004413501172
334.6555247306798
333.9260181727804
332.9531898972167
331.7630593771762
332.9016767583666
332.02354989703804
332.0927018570923
332.9681957513809
333.7134068011293
331.9883827403535
331.85323429683484
331.9058105747792
332.8051529100145
332.2926199807481
333.49479026148146
331.658017052002
332.89818042260913
332.0777001037461
332.91530087961263
334.57666673761014
333.5510928249257
331.7011587314433
332.8884816902525
334.55977707634867
332.89055046241276
332.04754183575375
332.7268078068481
334.59613501063694
333.2352008532442
331.5490891536659
332.8998515707742
331.8468480537828
331.9248336549968
333.960238887735
333.80351507945574
332.8922428737294
332.8617128172051
332.9135290412633
334.2231849828698
331.4888926253517
331.5765618733298
332.82250585929256
334.0778847005272
333.6317920581327
334.43996465988226
334.3295866455984
334.49382167135497
334.5179385126856
332.9196774489168
332.82819038431523
331.9929331666131
332.8100003462376
331.75419429151674
333.31284922660376
334.60337712015235
334.2726225877829
334.38742472008664
331.5436198092052
334.46318442678074
332.91696782344667
334.59894308409196
334.556375472188
334.49331112093944
332.88344151442584
334.022588553535
334.13885095170116
333.15987221963906
333.88707887758864
334.19570147325254
332.9036650831327
333.71487687030145
332.902747382458
332.93617314501205
332.83521428603154
331.56246246607736
331.8991296108135
332.8954731391187
332.8430438543343
331.5076225001979
332.88612488229546
332.9077924571252
332.9730138266713
332.0835797426622
332.8342505137574
331.61029875319514
334.6079956022364
332.6158669140572
333.4038767116433
332.3777274126312
332.46477920470164
332.87791561295865
332.22929683883126
331.47304203298506
332.19351342362313
333.04374282766645
332.803437902535
334.6380985684779
333.026015383567
334.43581195164535
332.87674918926086
331.78331228919217
331.4977652812056
332.14697031829803
331.4803886919194
332.2225992133455
333.0897584318766
331.65167718300376
332.21909300479643
334.33699486053285
331.9848681185406
334.3940806748934
332.7666589702834
334.6219358363378
332.88538171245665
332.85885718167197
332.79533173724354
331.9809780246515
333.5101171424113
332.8164453064598
333.9277493545188
332.2231821701332
331.5627944408444
332.15277555988393
332.3898110711468
333.81587313642945
332.8174778521239
333.67640980045473
332.7840441073187
331.3948330029004
334.51321273601366
333.39661802695053
332.81615197715996
331.598817741346
334.0014413016272
333.7658774127345
332.83690104802565
332.8348407878842
332.1791933179934
333.895748650882
332.7967259802978
331.53988789465404
333.610907731422
332.7882757678026
331.65260164527757
334.50926123016774
332.15552043521797
332.8275291649673
331.89830629192704
332.50960791166324
332.03470902410066
332.2587954196888
334.31658771482387
334.41436413877847
334.10356633252076
334.536555613119
332.87145295292595
334.4516747659198
334.1687532939834
331.7054405544296
332.8305853244676
333.03203896698767
333.1816495707295
332.2889748450802
332.1280149846002
331.5525342165159
334.1831580418552
332.3842444734495
333.1130393678636
332.84267604205854
331.70545318848724
333.26064256458386
332.96875820659983
332.8300895122284
334.461872306052
334.52906086602644
332.94811360514035
332.81909271870586
334.27661821269913
332.34761128118873
332.70634678911955
332.24342285955004
332.1144719567028
331.51692666931814
332.8236266211028
334.4880954615582
331.7200927726434
332.6824501704791
332.82952791198335
332.39221972923445
332.77364033436237
332.6172187889586
333.7324650648795
333.50462148528504
331.6479042170786
331.63725767907493
332.7020198096507
334.21940229695275
332.7168556921829
333.1792827909417
332.3950735647703
331.6687364227147
331.62514624285393
334.29597612866576
332.71841117028583
332.71273452745396
332.7054695376182
334.1495474779218
333.34410128434206
333.0514200637588
332.04885177631576
332.0677553805081
332.1661935200156
331.67537030907835
331.6450972963591
332.48646233984016
333.6333486679355
332.7093525566861
334.29995713722633
333.92300163734984
332.74740083185816
332.9621693715757
331.7137987514062
331.67575148369184
332.4119700112476
331.3487749422269
332.71003140249485
332.75507027184943
334.0445271693218
334.3094268696233
333.08056717704847
332.86566976648044
331.92632392213295
332.7491796611388
331.7735032622818
331.7654117992123
332.553011303537
334.15078593472685
332.73354985658864
333.80226262553896
331.59679354068686
331.53039965643035
334.38036010749613
332.47864893685045
332.73346576605945
332.8010090078268
332.3232892389799
331.78257741438995
331.6129530404856
331.58574230152055
331.6161820760028
331.7036965800461
331.5563710884429
332.5663848201344
331.7663074071845
332.6333226101355
331.82390538964876
334.34857549442785
332.77215311478534
332.3408544446346
331.996230884543
332.54419541874097
332.62063022090916
332.1129994541614
331.7184813964345
332.59313061054945
333.40671212545925
333.9231208034328
332.6599225865447
333.1124452731777
331.69470039229793
334.15289239446145
332.37294195463477
332.1206958379123
332.17535166083337
332.08073146407594
331.56418183385307
331.5927469489714
331.62808325987936
334.00481623100086
330.4839376307884
332.636161255406
332.54181772660314
334.1280560245938
332.3541978354518
333.31166157943125
332.5949483758287
331.73993650379555
331.65725888745624
332.3383689228483
333.0370104645339
332.59268748579706
333.4880890292474
332.5411892562439
332.18193768793253
333.90259894109516
332.6480941114906
332.4078703125935
333.68398720671706
331.95587469824756
331.92203213843163
332.49375489366236
333.278616667581
332.6057754545695
332.7972123852198
333.85490379219135
332.7621760720358
332.038043198883
332.5308137285826
331.85873265294987
332.3700515913745
332.4431901757704
332.866316571455
334.0308374516794
333.89036402274724
332.4086897937978
333.0878001171369
331.7927877891824
333.96804710806146
332.47463788774274
333.8077856651539
332.637274406757
332.2398121362619
333.1522410779309
332.45651559537583
332.455103449814
332.88935105372343
333.81108472659525
331.7446914420478
331.44682772026545
332.44408882383357
332.6907815525546
333.2996180730475
332.5744732931783
331.9966493608125
333.44735375529694
333.36640455812886
331.8748257423479
333.59374673953147
333.6937683146094
331.92389047766903
331.9653685082631
333.6612704598262
332.40380145232575
333.7877324647863
332.9021785400502
332.27428706891817
333.1862005647843
333.0467854063835
332.30209721237816
333.25490420667603
332.3109209793937
332.811560331777
332.6584520231244
331.8878108533995
332.4458146470715
332.0882071023911
333.6013638485293
332.56359347859444
333.2867900984118
333.4964306951587
332.2094485470721
332.0342187163402
333.32696089914356
333.2810753133796
332.9735285408216
332.2698941012028
333.12433729893905
332.0437086977626
332.1308354962453
332.6463229427679
333.02693170797386
332.4668823644881
332.4407124800549
332.6619511280087
332.8926476140661
332.93164382781447
332.90946526425546
332.8718571784796
333.0006029368377
332.8972704592557
332.8702644569907
332.957435096043
332.94527609841685
332.91948979893897
332.86657215471155
332.9625161064525
332.97290429665856
332.95879394633494
332.92200050143924
333.0096613967603
333.02448310893493
333.01208014900783
332.9486451949237
333.056191974305
333.09369099336027
333.0884291600748
333.01442918083194
333.0811046227914
333.1117017941735
333.1011520343515
335.65846866970344
333.0186293949275
333.1328548267003
333.18638553989945
333.2246320161788
333.22324684640887
333.4409912555697
333.60414231485737
333.75288393271865
333.8136830523365
334.0378212021075
334.2008604943355
334.29524695019813
334.32210930608886
334.46333645211615
334.5743384297444
334.62366541825315
334.6071168731851
334.66587607612206
334.7397136365444
334.75736087254637
334.7277648459996
334.7430635826991
334.7930178683679
332.93821202674826
332.85686900402504
332.9339812929323
333.68307115223587
333.7989340295139
332.9525129339006
332.9125697203059
333.0275305600118
334.75174615560246
334.7550149307681
333.9197163141223
334.68701181543565
333.09192385654046
333.16471945386735
334.12951760051357
333.07203951916654
333.02602339059746
333.522356131874
334.776557952634
332.94853117099075
333.11267170660767
332.92631333782595
332.9775570598552
334.71346086882403
333.0812828708236
333.09478500370966
333.00726161135236
334.6035679996516
334.6319716068566
334.59141864047774
332.9703592628045
333.34448584677256
333.06707301035806
332.98251595586964
333.02190990350925
334.52870290699894
334.2527892296129
332.9723667806366
333.02341047981554
333.206843683494
333.0999633722423
333.04084010640975
334.3707156058966
334.3257657507979
333.2217441383407
335.5035796941369
334.3480522610473
333.05385960281865
332.96723576525113
332.96283082972633
333.31142999106874
333.0983330992449
333.49278480921413
333.05744250831185
333.0519666414061
335.4852912418504
333.0486765746916
334.80356282433826
334.3793576238202
333.72244228685594
334.6930431858032
333.8821293842247
333.0264376878425
333.0649159443103
333.09689605199094
334.24193873876374
333.0376613376989
334.8195014247447
334.4635604762053
334.7535387452794
334.8201535971257
333.18960283643696
334.6104490314035
333.3467577365278
333.1015165898384
334.71156399966134
334.83645586779556
333.1461394697931
334.06068690526956
333.1554329938912
333.16689249189403
333.09500700928504
333.17531169105933
333.267742805728
335.27432607056716
334.8577640336388
332.96317778606135
333.0648482674794
333.0421920785372
333.0599545927662
333.06780399602127
334.7865249437776
333.41246421379753
334.8140439622021
334.1564466819477
334.835525708871
333.06272038002675
334.4270616123457
334.301023024876
334.817456285354
333.10562653369146
334.32710658118
333.9361153054636
334.7101864467476
334.55518253226865
333.6333539870175
333.09200110662005
334.71021823688176
333.15570718934083
333.18958999329556
333.80737410262
333.9687740438947
334.6483216275906
333.17512826587
334.49103242131076
333.02278386669684
333.0682976568932
333.1621640220534
333.1526595665025
333.1437008798778
333.16075596174653
333.2392433534333
333.1249150185895
333.0105689695502
333.05061569080624
334.6622278770195
333.09096115856937
333.3214117508108
333.2703337406805
333.2054267360109
333.1454760285537
333.54782153863624
333.1387757407449
335.36214483181556
333.18744834397864
333.09479281661254
335.5722357215943
333.04529190697883
334.801642863337
333.03248968385327
333.1590510891361
333.3056135364174
333.16441362159884
333.1945423981682
333.07666116854585
333.1759810794492
334.85600906696794
333.1722466159455
334.8291953199693
333.15001781649636
333.04059657319755
334.9286408435613
334.890485390743
334.2669640386855
333.20149710731096
333.93995093307336
333.5565197402332
333.2211611482747
334.7709200375552
334.4732744445928
334.9002109919435
333.2774050443691
333.2452953467003
333.19855530546965
335.19104733588716
333.2637142635059
333.3552002952058
335.02616790875584
334.907206269348
334.88261193161566
334.02186456641
334.36679661676004
333.18634259268003
334.096285811609
333.8447675257991
333.47604974255836
333.19307687147744
334.882025946808
334.5343201121482
334.7918169363424
334.1713963547764
333.19097273540217
333.2796626414289
333.2214244276205
333.2635095019442
333.38051440230424
333.64189031837196
334.7249136394023
333.2404994307169
334.86493516000377
333.15905910705277
334.3942134914044
335.3042175390144
335.11834512140666
333.13903397450906
333.1468199032932
334.563384783745
333.1546543831231
333.1539015879556
333.1674011130285
333.24756793853606
333.2573649873133
333.42784615896403
333.1685177746995
333.2957342167267
334.7852405186477
333.139287298034
333.11956453840617
333.393637466385
333.75115910982356
333.1690372434519
333.26671025247094
333.38455592323567
333.29305963139336
333.21234605915276
333.2465635626052
334.06431054619026
333.1656845522004
333.17957782501844
333.227136975524
333.3080303647046
334.6376786410992
334.6884649040574
333.29528505897616
335.53480830772736
333.15387923441324
334.9589341419689
333.3016181674558
334.0801209616383
334.8067065241664
334.98867586462796
333.3807528030196
333.4673501480577
334.8907488451701
334.98880999908954
333.29169782242155
334.95070411836593
333.34128065545707
333.1770981903148
333.30325154276125
333.96485371896165
335.00082443823345
334.75441784682357
333.36690586221965
334.96516111335046
333.36589958863266
334.870254368267
334.85252427143143
333.28176094226177
335.06019818427063
333.2959640104756
333.31645150565066
334.8762375209948
334.4832628458996
334.645554273725
333.79515050389983
334.36119857013034
333.49623918861846
333.29307973156693
333.43309650739906
333.40218758515493
333.8618483971845
334.26935911211376
333.3296570074549
333.26687938126264
333.40304886112074
333.2816149132694
333.3388944648708
333.29141005022245
333.4287481879691
334.9272040144371
333.70127836383443
334.5737609596345
334.1784459386303
333.4877400180347
334.8258460104674
335.4828178931318
333.27228565574063
334.8535997527752
335.5640592941818
333.33043045288554
333.2811952532893
333.58144107160587
333.241253999445
333.60940752929946
333.31851463627794
334.4626523206942
334.92613837420726
333.2530207400979
334.75991320160017
333.5378810168625
333.3774734449133
333.2856644020527
334.71902779622894
333.29741045721113
335.15175358987375
334.886282356546
333.4159862619222
335.00329263517284
334.33820273082824
334.68134912278873
334.2337408740094
333.2875786726713
333.3884597429053
334.76829182833205
335.0419785181046
333.386965465596
333.4107096971471
334.08254996787184
334.9435882224391
334.79960314543416
335.0656549712322
334.90093382823915
333.46858729027025
333.3985110686311
333.5439252035697
333.41176387444904
333.4428749323145
333.44753022380587
333.5671234403705
333.41028482005635
333.49638534305586
333.42025964191527
335.3058186567227
334.5652117347226
334.3459711979655
333.4060084664181
335.0256167468696
334.9819834626525
334.5781689086407
334.93444310450207
333.57229512169323
333.93050003639246
334.6486580869834
335.38876907175563
333.4230526243889
334.7418210600044
333.63212022447453
333.42400716764433
335.4330518534044
334.7383389911943
333.39054562654354
333.4083874339794
333.7067406440278
334.94307409028454
334.402665552549
334.67107705643656
333.4101489811467
333.85729860004506
333.3944618478451
333.4168378394558
334.57221429597246
334.61850902410964
334.8850021495118
333.50301391364343
335.15976888546567
334.2566159110068
333.72992539714903
333.54752597781084
335.1339188326279
334.40436326045415
334.47534794864106
333.6284007989261
333.5162560321854
334.54009573804944
335.10863283676787
334.53522598360314
334.8405840332195
333.64411164057293
335.43709028766557
333.6018098346167
334.0453261503492
334.3992498569424
333.4916838667954
334.60821793581755
333.56367260583175
335.1134989484209
334.4342998491181
335.32690772618247
334.42720220321286
333.5437403867705
334.8260822933913
333.5910173438775
333.7491123044433
334.67924108725055
333.5664502363396
334.9772440971403
334.80652061881636
334.9847837759543
334.499134552025
335.2384076517155
333.5678185388568
334.3169303459827
333.5800731497596
334.90563273112514
333.5561880832139
334.7529114221064
333.7052055807095
335.05790322522
333.83780003681045
333.56799127222416
333.58437229886465
335.01725836686074
334.2401766284318
333.5208494396444
333.90403679052827
334.535130958187
333.540897243974
334.22959112208514
334.6961789408904
335.3339970564815
334.4499908048124
335.1741412754114
333.8199437931969
333.7052174293559
333.5526179620946
334.5968069475751
335.2290481808519
333.7852231088775
334.2953277995384
335.081049548137
333.6681757727798
335.18282584412543
335.0129696716247
334.29770434995385
333.74717752766173
333.77041446133103
333.7381455019674
334.9341510586054
335.15441889709683
335.2161883500417
335.0668612035938
334.3171989649078