/*--------------------------------*- C++ -*----------------------------------*\
| =========                 |                                                 |
| \\      /  F ield         | OpenFOAM: The Open Source CFD Toolbox           |
|  \\    /   O peration     | Version:  v2406                                 |
|   \\  /    A nd           | Website:  www.openfoam.com                      |
|    \\/     M anipulation  |                                                 |
\*---------------------------------------------------------------------------*/
FoamFile
{
    version     2.0;
    format      ascii;
    class       volScalarField;
    object      T;
}
// * * * * * * * * * * * * * * * * * * * * * * * * * * * * * * * * * * * * * //

dimensions      [0 0 0 1 0 0 0];

internalField   uniform 300;

boundaryField
{
    inlet
    {
        type            fixedValue;
        value           uniform 330;
    }

    outlet
    {
        type            fixedValue;
        value           uniform 300;
    }

    wall
    {
        type            fixedValue;
        value           nonuniform List<scalar>
36979
(
350.65513997636555
346.06559465476056
346.6349271447669
345.9530213332927
347.31400877559213
347.80626129406284
351.1659871933414
350.22638717478736
349.7719112215738
343.862482988777
343.66048434114794
343.8357699867575
343.7914805931105
343.4791464597633
343.38967361431264
343.6322433711236
343.7275701445774
343.6777794917198
343.7887624139689
343.74271000693824
343.61144792918503
348.94128813154254
353.48234866972524
350.0489416130945
347.9655903218607
343.7723309255298
343.72627728942047
352.17897855340567
351.25178642287693
349.4648089619108
349.8930077725083
349.03169527396994
350.50327991689124
350.4010406097258
343.909371782185
343.86628113313606
343.9116021974947
343.8669523810804
343.7884992146885
343.4987579913154
343.30548227836033
344.0133527497448
343.9735322555151
343.8578694494766
344.140673844504
344.10159878376913
344.184183653052
344.14414615486055
344.05870128463397
343.96218352356874
343.8729659746489
344.2194469963177
344.1924225445873
344.13349395231495
344.4105323035747
344.3783890622628
344.473895296369
344.4393370475486
344.364389520435
344.39229902488677
344.3274372323163
344.31946334921884
344.31404277808207
344.4056364410441
344.6328407324982
344.6070150546506
344.69652873865215
344.66383823949775
344.60163605790115
344.6454110452958
344.5940815488599
343.9830372353492
343.7693708695554
344.54700896685097
344.6590470105888
344.6235938279504
344.73440295123515
344.6940697259765
344.65141333002873
344.70858146771604
344.6645471986958
344.50658777141206
344.47068462434106
344.560056777762
344.6397025895198
344.62846236109505
344.7992167832107
344.77077307514776
344.68550435471843
344.5599684526831
344.6504032083804
344.5911509006373
344.61251845474493
344.5236317725075
344.3993967079119
344.2747047383206
344.090660160575
343.9799307591712
343.79577822365206
343.7413325823339
343.6032545223818
343.63695013544026
343.51157788423865
343.5077281348025
343.5897070324968
343.70774171520026
343.8413873521143
344.0108057254201
344.17664877670035
344.3392110830155
344.454601775129
344.57834575175065
344.59295709751416
344.63811288051664
344.5911918275654
343.7581692799627
343.9335696502479
343.5070402827587
344.0828026494854
343.5117876024182
343.654101354204
343.5328328508739
344.26970037019225
344.39086251179634
344.52953870795915
344.5894056862761
344.62038970001123
344.62082643999196
344.6343859056936
344.67052676344787
343.42568681687493
343.3302211861987
343.9518386831727
344.51670076833807
344.56534754616587
344.6446260698514
344.32265835915837
344.54608111715476
344.24555590169246
343.78332658504326
343.36885165815164
344.4336676039655
344.630478989264
344.5336786750186
344.04829113067626
344.61303373760234
344.5543067385215
344.3051242226043
343.4889392552479
343.8886919200179
343.66054514253256
344.17266507997806
343.3945087494196
343.5936950284756
344.67055603007776
344.5428899872485
343.60592617038225
343.3827640693706
344.2394694960927
344.22127292223405
344.6453770484418
344.0895522690283
344.34525433407504
344.5811338344218
344.4428225541059
343.57222341442355
344.4081324861253
343.84242270407947
343.74264857018767
343.8362773010115
343.2762665576166
343.40379103552806
344.6372173829056
343.18777007367703
343.7027639869119
344.5342217836197
343.4867229713487
344.1127769148562
343.3944407063955
344.2434684962065
343.2779598254746
344.5150440138719
344.4863347808208
344.562100796001
344.50550871039906
344.5254925451266
344.4189493119649
343.98953671593966
344.2139499235429
343.76121168403455
343.29471863203685
344.6986258346859
343.78396750855865
344.77614661258275
343.8862219690647
344.65946157506033
343.29474093176367
343.58028192878135
344.28455307578014
344.44591969833846
343.3806566615255
344.17363961890516
344.6488008981809
344.1427460179998
344.5172813365496
344.0831692973517
344.30268503694356
343.64285286270854
343.8769394877155
344.6298983462207
343.6931209863684
344.685856539282
344.62155152003885
343.44620204151556
342.85871107568295
344.81607397167994
344.3316199224335
344.51225825661265
344.6185881589843
344.75749777605375
344.25435891136584
343.9580560646606
344.6398525079488
343.9075863817115
343.54593259400855
343.6208751965668
343.5037745640421
343.6870787942977
343.758468426786
344.0633609408407
347.3628784056772
347.3775484381076
347.39886476527465
347.4218236923622
347.4207481566268
347.39842996481576
347.40052580698085
347.42679331268124
347.38210136444894
347.41112845902774
347.4568814613511
347.42551795580914
347.29516301931375
347.32447056013956
347.22410139293385
347.2471642724783
347.3512176777603
347.3114390146459
347.1875525393902
347.16750997769344
347.3420837850789
347.34145413687634
347.0357259997306
347.13284398316694
347.4676170109233
347.47804726768504
347.55345989391117
347.56655900219874
347.5157481442631
347.5046647785756
347.615180557045
347.6319105965979
347.660466552049
347.6816445482284
347.6516038149274
347.6375740969494
347.68932979328736
347.71358894231764
347.68196043196514
347.7063053037819
347.70988913245657
347.6946754892485
347.6237610618175
347.61164266846356
347.71342319845473
347.7005171256203
347.2622529892106
347.42256432658803
347.8031602637799
347.8083233123953
347.85120639165
347.8564208155302
347.79769570860236
347.799018597936
347.8647370092499
347.87242574416
347.84446220544226
347.8598859719482
347.84715914253604
347.8435059688462
347.8008782152277
347.8220999088904
347.72908732568004
347.75338535230236
347.7928148759823
347.7781761409572
347.603001226488
347.61094690488676
347.58061988676246
347.56718373863737
347.3962075060721
347.3832696762725
347.628501014554
347.6486427145567
347.6284014778423
347.6560088689002
347.6401816991385
347.6298160551669
347.6036116878539
347.6348173326137
347.56260575000397
347.5963164521579
347.6282502286242
347.6048765701156
347.5079600869447
347.54323171230055
347.43316629071046
347.47106118107797
347.5421622744883
347.50734192001516
347.31657461009775
347.3483861923877
347.23620966569655
347.2119626453726
347.27100846269764
347.2094417284249
347.28369852624274
347.3059583606003
347.2843703724249
347.3190067423103
347.3246346882215
347.2993251795603
347.2632956339517
347.3023815991666
347.2337331970323
347.27581401500794
347.32922701404857
347.28808528441647
347.1985276113836
347.242725682017
347.154060125775
347.1982495556972
347.26375834450073
347.2249623300938
347.07924020334957
347.11972942384693
346.9823359550833
346.9591462250427
347.10510322597634
347.0472847586955
347.04556188373294
347.0636487608865
347.077882560718
347.11437361149507
347.09043793104166
347.0708131349359
347.08427861712096
347.12334009887707
347.07939153739966
347.1192009535257
347.15903105332575
347.1187897456245
347.06560109281395
347.1080300639262
347.04418840479514
347.0879306694207
347.14154618737206
347.0995751884345
347.21002123123594
347.17393472967245
347.1370026868949
347.1751713800544
347.1459913696258
347.1170021346284
347.087388580714
347.1088557795507
347.1227480481471
347.15340023621917
347.00180164787946
347.0442877513425
346.9144150992876
346.91231827603673
347.06005905298633
347.0047748937582
346.90510032015334
346.7888747682574
346.975126564903
346.9975041226025
347.006715586803
346.9787875599545
347.11355571485035
347.0651865656896
347.1438840212776
347.10312001596844
347.0477503723674
347.0897715151168
346.97003293481316
346.9731828616319
347.03289115286174
347.06518206647115
346.99649519422485
346.9886150688121
347.14912909361595
347.1113737130877
347.14624921692047
347.1085842053326
347.0772377323788
347.11669004007706
347.13370950943573
347.0969421457035
347.1011910662428
347.0700799632891
347.05850834202903
347.0972997814531
347.4041849424084
347.3689047617665
347.43833802155035
347.40544615360767
347.3477189949388
347.3778099382441
347.2550081535089
347.27502345020315
347.28102377059673
347.2549400237822
347.2704062931968
347.2646653044903
347.4995420650554
347.45986895501886
347.6125728930242
347.57971135649024
347.4705972714178
347.50365478911266
347.6982036068377
347.66999682857295
347.7693383636411
347.74317678388513
347.66943271999946
347.6987989248846
347.82773055593424
347.80257352252653
347.8621161901052
347.84078734676234
347.80102513162797
347.82411350211345
347.8142618670907
347.81474044294094
347.7224769509514
347.75741047228263
347.8245828297518
347.81985828914594
348.02582374654025
348.0129142669109
348.150983329068
348.1355653298106
348.07596926130566
348.0908201625877
348.2289481406798
348.21324426098323
348.2924707199688
348.2784182190631
348.2334084194404
348.25204021914857
348.3479383610092
348.336664062792
348.385908094161
348.3821796880576
348.3610551434534
348.3751086014929
348.3566364198227
348.38367515039334
347.6534468295197
348.26487105270826
348.4524659894568
348.42759454374163
348.4532597787334
348.4850466837391
348.59845132389114
348.5998901848623
348.64060929943
348.61800797927424
348.7093725972168
348.7219159039419
348.66908671935676
348.6721823590052
348.6657885181288
348.65575805747085
347.83506959037487
347.8530299003432
347.74170366158853
347.76875017737007
347.5825073193573
347.61308864301867
347.32885044455963
347.35777968994245
347.45661593724645
347.4278374834671
347.2324811247572
347.19515201761914
347.9240124387578
347.9257558620461
347.3919409757373
347.38673738386655
347.5935160625516
347.5811786927592
347.69306044106844
347.6780291008468
347.66092198499666
347.6432509111248
347.68260940921755
347.70171666272194
347.8378370409334
347.8367304218382
347.83176957225487
347.82371880657314
347.71106245732204
347.68605081419537
347.50665492023063
347.5445702509226
347.6479764848657
347.6301788326755
347.59307651544924
347.56368577644906
347.46426166274085
347.42315845498865
347.07879908227807
347.15199510660136
347.34416187180113
347.30649383973633
348.16382505586125
348.1819386315496
347.30052387728523
347.2604587984983
347.21482240236475
347.1724343677615
347.1543220730339
347.1129082684429
346.50911506294864
346.745160730178
347.14784927466775
347.1131823093576
347.1195773840893
347.0739484995207
347.0707305061146
347.11160273029134
347.07365584873196
347.112566810056
346.5606860546977
346.5135198218744
346.9824191574757
346.9943773339813
347.18825449162233
347.1550291890245
348.2988475095627
348.31607716297884
348.4155061591992
348.42096097863543
348.52657742218287
348.47539452641735
348.8063475098882
348.80505708295357
348.7836205649177
348.79486554218767
348.7335881394109
348.7256745290961
350.58824184087
350.0265787693859
349.6219564029365
347.79520286034887
347.9592027162324
346.8306837321325
347.0271637473994
347.13259108777663
348.13580200090865
348.2685573441575
347.287522588431
347.51076697630407
347.52754738708114
348.38581688627636
348.53899972778197
347.6584296319712
347.75910226975435
347.7516939985613
348.54604323166916
347.8343352486526
348.062777730303
348.20348714403565
348.3295892472301
347.3391314558476
347.69273186038413
348.6353863882303
348.5488787048125
348.44686446407485
347.8285732961022
348.00471713960826
347.7052976065096
347.33816738448974
348.27457791052143
348.00967391518685
348.14440035074364
347.9303646898787
348.0745627730214
348.3489527347325
348.2083221695869
348.37514843791683
348.33353827434746
347.5553993175182
347.8085718441595
348.38486892397685
348.0035325734855
347.755732060691
347.86048766523805
348.125713965033
348.18217809756635
347.9286190676343
348.0838496583187
348.22529233930584
347.30625873205497
347.5474558659816
348.2168435170894
348.2708575134811
347.92354455847635
347.72685808795296
347.84589397761744
347.5891445716684
348.0133967712996
348.11697972618555
347.87561230369295
346.85455930073675
346.9111001303084
346.95470016481966
346.9623216350744
346.9315490457638
347.014462525979
347.09461193563436
347.16302203197574
347.18185258503325
347.2862232022315
347.42588091848546
347.5048400883249
347.5181842659159
347.6018075664692
347.73987345074755
347.8052085988915
347.6873248944859
347.5808016823735
347.5764140040353
347.51363464568306
347.3561163230362
347.1925874319047
347.26959856966465
347.32401009460057
347.3267438175283
347.26870557394136
347.479492486808
347.63874749787385
347.5221404046797
346.86541817354026
344.74860922517433
344.63737454490234
344.7766470974745
344.69922986635436
344.70649675953325
344.51264290062437
344.4784828975278
344.2512880387563
344.19533702654974
344.0096098357462
343.93750905312874
343.82312866355596
343.7957550636392
343.7727542181943
347.0208542099771
346.90571849696835
346.9503162653417
346.9473575358108
346.92474660852236
347.36778565614077
346.95735957348325
347.0108790900669
347.5178787135002
347.5228802279447
347.6838266971974
347.3055379645763
347.78377798500554
347.7550353455316
344.24186443878705
344.7724029231576
344.7145477262799
347.2297949634493
344.81524526415086
344.7359534536604
346.95205441500195
346.95159404198455
347.2428217064042
347.05567208577764
346.9668762060819
346.96015449471764
346.91539158927407
347.468343156472
347.4500569424363
344.61941024837785
347.55110469218823
347.13205305144925
347.5658229173694
347.3702009164647
346.9312537687744
347.28819121050714
346.8723940337191
347.5897245976405
344.5166127930238
344.3872742761316
347.7093944688961
346.896641257305
346.9345866904385
347.18257512699995
347.33624650995824
344.229697627507
347.60455011410664
343.77149591807523
343.7976134038568
347.29840152594977
347.1977864696134
343.8958995953981
344.12188846134933
343.9506522915719
347.6524673298387
346.6906502185096
347.26051783054044
344.5958874509368
347.24134779818877
343.96978830186083
347.62502526713496
346.74414309418006
347.18049259954245
344.54563940864136
347.1808666540663
346.7363506002064
347.6658058798614
344.0531644543413
347.4021961790513
346.74585815137164
347.34928678243534
344.83388905920606
347.2052224719721
344.35154668996694
344.184596734155
346.9836714172812
347.04827523750185
347.43625113991163
347.24684021311657
347.1915086718008
346.8176229794657
344.7574912280326
344.7501491125553
347.49963541092245
346.89172329351567
347.12151894434953
346.75948732727016
346.78143375615696
346.75902508394677
346.714833795861
347.41902806477424
347.3008677239664
344.13014003891914
347.5738317895476
344.48067028399083
347.30895515153156
346.7690576902892
346.7879003363073
346.7922061896029
344.85917064937627
346.73831507225196
347.3272268310949
346.7742367128043
346.76292864456536
346.7129972090512
347.4592464545217
346.94055214957166
346.86376229854636
347.37128034745234
347.01926926296494
346.86948478360324
347.4267328004584
347.07711782759964
347.1865853537196
347.40582994534367
347.25488351314783
344.8124206634875
344.25499265003646
347.1674302073634
347.45661638082305
344.8120137038317
347.2423568750331
347.246187559304
347.5729421685168
343.92376347114515
347.3788394761717
344.728394114036
346.76660949195826
347.15572865041133
347.26707979840216
346.5599388268183
346.8478115273211
347.58748419385535
343.7993737588392
344.7466569398282
343.85496940862157
347.46124507734254
347.40400657350244
346.83381932134984
347.5481160718308
346.8148686840539
347.49320177193
344.40691246701675
344.8007282601636
343.89124369574904
344.7586652480027
343.80609303970107
347.3979821745414
344.69228240929846
343.81535110832
346.5133494072532
344.3451217835362
346.5309501156929
347.34548320953166
346.8179764160075
347.55691609163773
347.3748004741705
347.38648813187143
344.05964615079984
346.9651583995509
347.24796060261406
346.7067181949402
344.0062878975982
344.94575693871315
345.883576117398
346.35440378398323
346.81327305333474
347.0484390569626
346.8940249349707
347.22091896899
344.44838430732574
346.5284172799282
347.03710579323734
347.267502394942
344.98016615978753
346.65422593299
346.88627843570544
347.0736677166143
347.2672774235345
344.13493883673146
346.7986978441945
347.1682003786693
344.89333805359604
346.9612324017859
347.29143269022535
344.81740745250306
346.5334838795856
343.7356475071488
347.1069332737433
344.49327968651954
346.7287667343702
345.56169714798165
345.8894808049968
346.5862748134601
346.493148368494
346.6660684728606
346.6176663423375
347.29302273399065
346.5181206552962
346.6478790754434
344.4078957044555
347.1056072451453
347.1982790985359
347.1328038403188
344.4154532331278
344.27570772780894
344.91411195106247
346.54348961247507
343.7959387933256
347.1762234976313
347.1804811894349
344.6275121364574
347.0596800542044
347.2619592186784
347.07336201121575
346.5011062029473
346.567497205991
347.3900377062999
347.36667882809377
346.6137610594335
343.88715351837067
347.0485006330802
343.4913529981426
345.2347348848879
344.8344565027
347.15623714849136
346.5304131863806
344.7771840964607
347.0500701172406
347.3369418904393
343.8407885351415
343.98223230647244
346.99758940620274
346.5288436541162
346.7192888745846
345.238539836831
345.1555387384264
346.85435072717365
346.2079178462052
347.08318235687483
346.7333661464501
344.11760087172985
345.22976801775525
345.1149956942879
346.26321735149816
347.19019559399146
346.8529703533285
347.0602573369494
346.22396072508667
346.7259891069989
346.82311923003823
344.5976565440089
344.4965046587623
344.57329766570297
345.23348053119634
345.1019377615606
343.991106166476
346.6410036792318
346.9979114383199
346.1985145099858
346.3678582439647
346.92369318101856
346.9332921964355
345.1100686652417
344.9925967591751
346.270884338521
344.43131489074017
346.99098927609623
346.92879943000804
346.4093302608791
346.1830479454744
347.01899814283576
346.9946484621793
344.64176774189633
346.9663783027282
345.00851961157144
344.9245811933415
343.9193383984816
346.35153488161365
347.0773288640716
346.39109444643816
345.0066360937324
344.8548689409521
346.26702818454845
346.54101253035446
346.99860203811676
347.0778951453434
345.8485634856936
344.7448757984298
344.75277573586175
344.7160815486892
344.9267004379364
345.0021238655683
344.90455967457814
343.88945273212283
344.6701009242333
344.0355922620677
344.8690125112171
346.2484215547541
347.08283990618355
346.26405612787426
344.89086253159167
344.36656392798267
346.8661231372718
345.18926317856295
345.28844795025145
346.7195210720184
346.35966029838096
345.75767131605085
346.7342400199767
346.38014572360476
345.3105073090318
345.83611958612414
346.45044781354784
344.7942751694728
344.6930616515268
344.73660308764795
344.89211310050257
344.9290235235461
344.9699375090591
346.1806217604358
342.7211120058713
346.68180430309343
346.6586640567986
345.8980591525289
345.63815655006806
346.4568518868656
346.7247418099888
345.32642074434364
345.3589344239758
344.56625720006747
344.4694575242509
346.70663682997935
346.24152080220034
346.63270501418634
344.8813644864709
345.8857865145288
346.71084471096435
346.42832920988496
346.0256168893855
344.9894381570504
344.86013417012515
346.3514896733642
345.7399181726748
346.6875612059702
346.54935396160414
346.06098153826736
346.72843361736756
345.0557132427117
346.35219004044177
345.27672692339246
345.872673042833
346.32745127427444
344.24988554127054
345.4557683211252
345.4899011980918
346.2986031588586
344.0827798403874
345.34873295593724
345.4564999008543
346.372733986845
345.57164159592276
344.5277269417278
345.43344318640646
346.10159338105547
346.3667113759782
346.3402158803844
346.0715088677012
345.79247751597444
345.2457392708821
346.3505371425078
346.272915424806
346.1792324507029
346.00339970366446
346.41857740168
345.1062136047139
345.7724181163726
345.9030754126903
345.12808541026226
345.66097430560404
344.9729870356941
345.16595681019857
345.1464780211788
345.11767775443326
346.0786056921506
344.95928997350074
345.7834414382475
345.86324969421594
344.3745791287367
345.67914124313
345.8813331454624
345.6776404022066
345.9002878335665
344.30061214581104
345.7063863434168
345.2318015923163
345.9484936916895
345.1890292843427
345.3480671749859
344.6197186405484
345.3766586702439
344.66244606287285
344.86104476571273
345.33799645775235
345.14319138828876
344.7525413880187
345.235474469696
345.3588503196901
344.60724006825575
345.25944831091016
345.42483055560126
345.22797796213786
344.86594672079013
345.28310294793073
345.1172534082306
344.9818075004243
349.2173323679556
349.1772760520258
349.0724826891226
349.11642620684034
349.10690262670414
348.8758687646028
348.88215275042705
348.87812752258753
348.7582300363294
348.60306284200254
348.3455347676718
348.4169368373196
348.3108509083958
348.1557187060357
347.9234152289684
347.91922960562835
347.7958756097779
347.63759066361325
347.43371235929374
347.5331083252136
347.53197410126944
347.4662435646025
347.3480575970357
347.54243633618967
347.6931337249516
347.781674340548
350.97662689426755
347.72565387067925
347.87994598832165
347.89655029024686
347.83407011639605
347.6460483500757
347.7279675041198
347.70094297652497
347.6144487785282
347.4081283615937
347.4589865795991
347.4300516874215
347.34488167111556
347.2053829650102
347.24304020094496
347.27522877731474
347.2489395031963
347.16448156251965
347.18650200693503
347.25679255498096
347.25861900060244
347.2186743187313
347.238937877161
347.3098808156208
348.6951062827076
348.38776720860204
348.43296333869733
347.6665461900071
347.53003802604616
349.25328464496687
349.28080309805085
349.22381085981885
347.2584958890149
347.2550671281605
347.4233426626237
347.1657962157363
347.83377876458957
347.90080083402466
347.4565181888301
347.78051065569133
347.74185090901256
347.71962211223234
347.28297390564785
348.81651951169
347.74753606059386
348.0191489461092
347.9446358920933
347.2355170130407
347.54252997987174
347.503531150683
347.48825549218054
347.26198393051294
347.2289101612468
347.1125281665058
348.3677576170044
347.7094276679712
347.41773378623105
347.53272826775293
347.8636130775235
347.2711649204033
347.3865328755639
348.24580890355577
347.72280144269627
347.87568756469125
347.6233198123247
347.4292966510492
347.18870344875774
347.29718122974407
347.7450646452128
350.79667931416157
350.4314918939594
349.30104493772404
348.9632778319829
348.93194207909744
349.7460193503235
349.04309424922707
347.85131639217775
348.20267553212386
348.80155447864513
350.54631915877684
348.50870809236795
347.4181931817187
347.48334393076914
347.8121834407701
347.41760317041286
347.7380512953109
348.88824405294145
348.3596533440174
347.91214357055713
347.61020042902726
348.65266031227793
347.419010175125
347.4157013595895
347.3772308278638
347.4251546828788
347.8218364847032
347.4410866655398
347.8720085512903
347.6604558828702
347.36426497932445
347.4311418261955
347.6651508381778
347.62050193828884
347.58427793294254
347.6413504819165
348.04897309283217
347.8958213928733
347.98310301412425
350.43236750414746
347.48194077167756
348.96173769549785
348.97374713447755
348.8516137780999
348.46043806823513
348.29095048652465
347.41235706199217
347.8618523530434
347.41293869473304
347.6269325650804
347.44114505590824
348.9498972923523
347.4582997317325
347.5583658923134
347.42140861488963
347.9877762939657
347.48437236909064
347.6678301789039
347.31974567048564
347.4210670477435
347.82912550595915
347.8474800518079
347.40586179302255
347.60769419313067
347.8713861763169
347.7832140590253
347.5915585172735
347.4312567518802
347.7523342885975
347.37298166872614
348.5671905556922
348.08932365876876
347.5964650738412
347.5939898567466
347.88031278372455
347.65973655108706
347.9767054469106
347.66206172309666
348.515142180942
348.7369920980345
347.3920844726055
347.6879837350991
347.91442642437255
347.9594703305551
349.3489571560938
349.27580207685503
347.8204393046681
349.19417641900037
350.4815122351236
347.9384199490709
347.7891675255776
350.5389591693562
348.39793016004427
347.38966617447335
348.10800513129345
347.6508048551796
347.9570480703237
347.9124857910476
347.94227695896063
347.7099823576491
348.3470257230772
347.59077776555847
348.4184654121781
347.56762809751194
347.67438477919814
348.9711656100534
347.6748220908305
347.6049743719461
347.7883380282439
348.12654112606657
347.91226837169853
347.98701345137147
347.8035125486715
347.6081810804049
347.64914919379305
347.6128140679919
347.9927264477999
347.78937381591237
347.8377758672706
350.17904248411537
347.8883991856615
348.0728898527179
350.14437499615667
347.62021493532507
347.59732366649325
347.86569301161813
347.76932458530234
348.1905079475718
350.278392305592
347.9293154260966
348.0091100094467
347.79022590519446
347.57484389549876
347.62571758598136
347.582936209992
347.79657833603915
348.0290330972867
347.953950655127
347.77547719901156
348.0087999792106
348.0622411474268
347.95234404264244
347.5825098539862
347.7525663717124
347.57278717327324
348.24591052389997
347.6344052736274
350.18528560391
350.17255614424414
348.62055917674394
349.01961007176567
347.550520596272
348.481109597437
348.89543838247346
348.7774827651969
347.7585725762458
349.19069333862143
348.0459177272219
347.93055377371695
348.04811948367126
347.5036909360182
347.93296681481735
348.9311927052893
347.9673157967184
347.9446465978143
348.84312893235483
347.81699548992935
349.38666748092237
349.29181280431305
349.0953204599292
347.75021673509303
347.7675224620779
348.5659106920056
347.87316614924373
347.793098523789
348.050682774165
347.6106614645382
347.6105976427685
347.9516494878567
350.22708433349516
348.701477135215
347.78268363924354
348.27792707928035
348.0511294543886
347.7993731906311
347.8502395558327
348.0833952250734
349.893188904515
347.73219830261263
349.88456029661677
348.8787079937155
347.78482872554815
347.93530748496414
348.9969613994894
348.18697637538247
348.0568352988027
347.88316343745447
347.7598043061107
348.09629147107205
347.7869085907243
348.0296905232035
347.7432803588395
347.8026956371994
348.9344524086979
349.8491976766682
348.0148160536806
347.9313093629702
349.85712079221787
347.81673100935967
347.7874496644239
348.0771814816198
347.95040761933626
349.32821256318283
348.48530933967595
348.15026258755796
348.1424952677987
348.0387050407959
347.93902565013076
347.94694607464675
348.52387292270345
349.267364339079
348.80940550142805
347.9145552379299
348.4090235879025
348.1622915909063
347.7945439248142
348.10051934831944
347.8259304654842
347.98166402226667
348.1712937137918
350.13409984604726
350.1099332070203
348.3212957294678
349.9831365447204
349.99409342072073
347.905047520269
348.6848892992199
348.1478655872682
348.9828246641261
348.09897398287615
347.87800325314964
347.95988661296747
347.7409933000267
348.73231664336396
349.781428648066
348.1735092094187
349.1924548274297
348.0792719852472
347.79822155572634
349.07825972367783
349.75060280760687
348.0147670333659
348.1102297097511
347.9833329483851
350.39926154239475
349.54740147619685
348.20866544773185
348.6001241128677
348.0082792108886
347.91090392719315
348.0193250066865
348.11685529580393
348.03748613546065
348.1935415627162
350.14103017911265
349.5497458068111
350.2881044235228
350.1552120906022
348.1447586578195
348.3046470864338
348.2663993446473
348.9124471771082
348.1001663623914
348.0909569863106
348.2535318133658
348.25304666570077
348.21624130092914
348.9348128793907
349.7644899531875
349.49459750981845
348.1330315258773
348.4567458812662
348.00255256104765
347.9228545785757
348.0083877989506
348.0009878401575
349.3090194511512
348.1430543002882
349.6930189238125
349.6909903462345
348.5634587639647
348.00270567494545
348.2518850889318
348.72241567787364
349.55039344333125
349.87161179087497
349.01614611104054
348.5626398924137
348.27685792753084
347.9235758288965
348.02597121456324
348.01658875013527
348.2007438282399
348.2184296735636
348.82512942416355
348.03961817195585
349.93249227622255
349.89768985395364
349.47800509043844
348.28020376548153
348.36516437388866
348.4060991929814
348.21410710948413
348.2785240580147
348.3074401714658
348.388337947802
349.42571563554816
348.3340966734603
348.18949379922816
349.26074244620975
348.26147046945306
348.13331604208236
347.78377356150287
348.3618869810298
349.35141897730773
348.32256014845933
348.3269648010535
349.2333092402255
349.1720333659795
349.2168721495333
348.2372833661059
349.40470563886606
349.7433622369306
349.29234203828423
349.5431558857109
348.64214717170086
348.23122156751305
348.83329579785845
348.37470240501716
348.22412081017006
348.48592909501775
348.2436783249713
349.99700551103535
349.32028655666346
348.2980715831516
349.3889556490131
348.58683932574894
349.34185353127214
348.74390270447157
348.24021474857364
348.40960245658505
348.1980916990613
348.4034773379461
348.1704414567911
348.4165424062677
348.92049439271466
349.09679103390306
348.2105759204363
349.69328833454796
348.95350297247063
348.37667400555017
349.7237416057139
348.2255298718474
349.1099856063878
349.12443378340606
349.1354909878698
348.60567725695836
349.0230080091366
348.53916091125996
349.3022466089159
349.02250566459225
348.59769249158245
348.60999085664815
348.5239190240553
348.63475195959586
349.0813004177431
348.5011442397661
348.499942077314
348.4956894373119
348.9293118144987
348.553663022402
348.96715534163883
348.7414246501609
349.04452916099973
348.49917995715816
348.86204004454726
348.28442241392025
349.5949858408696