/*--------------------------------*- C++ -*----------------------------------*\
| =========                 |                                                 |
| \\      /  F ield         | OpenFOAM: The Open Source CFD Toolbox           |
|  \\    /   O peration     | Version:  v2406                                 |
|   \\  /    A nd           | Website:  www.openfoam.com                      |
|    \\/     M anipulation  |                                                 |
\*---------------------------------------------------------------------------*/
FoamFile
{
    version     2.0;
    format      ascii;
    class       volScalarField;
    object      T;
}
// * * * * * * * * * * * * * * * * * * * * * * * * * * * * * * * * * * * * * //

dimensions      [0 0 0 1 0 0 0];

internalField   uniform 300;

boundaryField
{
    inlet
    {
        type            fixedValue;
        value           uniform 330;
    }

    outlet
    {
        type            fixedValue;
        value           uniform 300;
    }

    wall
    {
        type            fixedValue;
        value           nonuniform List<scalar>
36979
(
366.06124461150904
366.48244419698614
367.0227250051811
367.08975165266565
367.6350070632912
368.05706753023253
366.53049951496223
365.1627710318554
364.1173568530191
363.6646750175304
361.71676301629606
361.7793229462176
361.717567970949
361.392062318083
361.26904494513957
361.8378932041952
361.79422360377276
361.7243717192096
361.9361497056851
361.87520610381455
361.92266856752735
369.3234510968437
372.2895501300558
364.8040109015416
368.72359733443835
361.96706521575567
361.90877532678667
371.53488858626247
371.27655705230364
370.0480463901589
364.1810270446795
369.77695207786434
370.6518183892365
370.66609037020885
361.7837867925419
361.724130061805
361.6885204573747
361.6245414995974
361.68665221809096
361.0376158198853
360.7760154756792
361.60326700421103
361.5454241599621
361.5487263000696
361.6527515119118
361.59662045325183
361.59006830072605
361.5315907089652
361.5610125739316
361.1743394098045
361.05075818313804
361.3913919391319
361.350200411202
361.3936166609047
361.5224589342463
361.47347916182747
361.4873315221593
361.434541553001
361.44043833385194
361.26621252745
361.17304583263495
361.0636527922698
361.04680447216435
361.2518582415667
361.3710345554404
361.3265924011688
361.3568554895078
361.3033638103756
361.2909422235249
361.19963316438145
361.12269170564036
360.26336216619256
359.9791318888495
361.0316561689417
361.0540247286759
360.99924037906067
361.07656960553265
361.0160779696059
361.00749020371353
360.97366468066093
360.90971934997873
360.6551135133665
360.60196271588535
360.75503926856027
360.7540912950086
360.73171833578755
360.88656762748684
360.8416146031869
360.7780971619374
360.6884538583359
360.9355278782863
361.00589031076174
361.2069273322872
361.29406554166525
361.36284094522
361.44924194877825
361.4703064238046
361.58617012791865
361.5840493543775
361.72934910844197
361.72541125671165
361.90573657725326
361.9479637792859
361.823354570397
361.74713434810303
361.66721379415947
361.5952180608877
361.53346906730565
361.4538978621152
361.40770225950007
361.2978477308508
361.23768742333016
361.064933090989
360.97430373017505
360.77656437044305
361.61443280462385
361.57910930561775
361.98314472528125
361.47589006987323
361.8971934407269
361.7196195062665
361.76701117099066
361.44451885100403
361.34188312758374
361.28208651567996
361.1496677867027
361.02229045158026
360.88380889086704
360.7648959574623
360.74651954165887
361.7307365399765
361.72476832633066
361.4633953955725
361.24867656902273
360.79906844923437
360.7641719301766
361.22034452547103
360.978533390926
361.42920972297543
361.580488878735
361.86990598375104
361.2420945220582
360.9597090218591
360.68259588399735
361.4133553458047
360.9956607338216
361.1682721871768
361.3623072371579
361.7446868878107
361.5624812337715
361.5584495605717
361.4369097256454
361.95287345385526
361.69863075921717
360.74114962128397
361.0536427818643
361.6191624669036
361.9730693574774
361.26066271842586
361.4356230520855
360.7875197970707
361.3973246014148
361.1724809481754
360.982841574048
360.9308420954733
361.4947821889956
360.5826474469384
361.51247239435503
361.59859819278535
361.2627166464689
361.9831772270232
361.4343962262259
360.96305364689255
364.61422331746826
365.3963253588698
361.2339184364004
361.6871724138486
361.069238344849
361.7945317483249
361.5171404188297
361.9752087338528
361.4064538712499
362.0360802786744
361.9676557050444
361.34591366500285
361.1483373045311
362.5304644063979
361.3662603804124
360.5661700266468
364.2393548016889
364.0306551243273
360.9470605818271
361.6925086484658
361.6706457291385
363.6056578309859
361.0763805534877
361.2929418816573
361.0834781637878
363.07816725881617
362.4703269034755
361.68987245585174
361.4520260915024
360.96546297299477
362.9825394069241
361.5921784245446
361.682093461265
360.9966032924245
363.39978867536223
361.7451390184426
361.00363826395113
361.90192953135795
361.2597597321342
361.9318950578294
361.9313898472528
361.5050552881929
361.1956920240689
362.3437063065265
361.9303500218826
361.1030670831638
361.560710336723
362.0227829843507
362.83895960609584
361.707850781935
361.8909860469461
363.1237319661508
362.3315580141111
362.7688918582847
362.50888060111953
362.142963708882
362.3772943110586
364.23299863389167
364.2317677775712
364.3785815055977
364.38988600354503
364.2820767249212
364.2806452062349
364.47371223311535
364.4894277359817
364.54367559972144
364.56277792901403
364.5211151795746
364.5061362256484
364.62039380442894
364.64136270277345
364.5773778724065
364.5941862134616
364.63422862407856
364.6161489808078
364.51006322651
364.46102983274005
364.71689972013553
364.7037502113338
364.1547134719865
364.3549307716342
364.8707344191968
364.87740363902657
364.96867637110347
364.9802017287339
364.8983051927015
364.8969362581905
365.0394501744372
365.0552351261388
365.09274990081263
365.11230291394156
365.0687297833788
365.05866379561456
365.12408334569244
365.1452827380983
365.10254474827093
365.1217271004954
365.1370741686264
365.122906623364
365.01003339945163
364.9669568205767
365.18750390820423
365.1470009017712
364.37884183226606
364.6673418164956
365.36886339944664
365.3656731370022
365.4818762008991
365.4859929869209
365.3747505513213
365.3817889298665
365.5586884821767
365.5681196453761
365.6121348283302
365.62685887334976
365.566200338008
365.56414835903126
365.6464681854923
365.66121551633915
365.6366417609145
365.6501386675209
365.6428821535911
365.6361700626396
365.5342589709726
365.51307010425603
365.6162171487452
365.5519828658951
365.15226836016086
365.1600545635768
365.8217134413274
365.8134388121348
365.9409782695718
365.9440426611228
365.8058145487929
365.8246792385359
366.0197396377053
366.02656052634643
366.0745942405252
366.08357322352816
366.01328408387417
366.0160089032392
366.1075909344916
366.118398428545
366.10553803820517
366.11882687071886
366.09956330521317
366.09194151421036
366.02430535673875
366.02379974628457
366.0076606120426
365.9002121510333
365.85047357737164
365.7967476715616
366.22854705126264
366.20530935369
366.3578064184379
366.3551415535003
366.19332450620965
366.21582921952233
366.4385244777587
366.4418660354622
366.49315388895
366.5000974043474
366.42693795155503
366.4269827856484
366.5271209849403
366.53690645369113
366.5342471701707
366.5455374333536
366.5106060317524
366.5085842064415
366.4776092594379
366.48411471230435
366.3778094876899
366.2595700561968
366.3827484318019
366.34624295083995
366.58803957296516
366.5466420609185
366.73209374891627
366.72548159949383
366.521685762813
366.558368358613
366.81715618045257
366.81743408398927
366.87384730013696
366.8770424680324
366.7961208082864
366.800225050972
366.90904606108825
366.9158500599849
366.92118676533255
366.93042341680393
366.88758817694213
366.88634219378025
367.50014235452215
367.5025757870517
367.52492727461777
367.52766087316337
367.33230007295924
367.34871992542065
367.38124148206776
367.35374568895054
367.4709517172288
367.46452309617445
366.88351662524406
366.8916266042522
366.7510797535879
366.66764503155207
366.82360904065536
366.79643849781763
366.7886679093632
366.6248977017537
367.11747327034493
367.08244207346837
367.202863624406
367.06313479582883
367.2005177122121
367.18103847228656
367.2406490122357
367.23614347506594
367.2432521854751
367.2530951006596
366.9049890301678
366.8321777839671
367.06865563256787
367.0567955952322
366.78647046884873
366.84716581231214
367.22628522746777
367.22685464470266
367.18980612243433
367.1924387395284
367.25188682775644
367.256957736825
367.13196733744047
367.1377204372795
367.0346188478788
367.0495689550733
367.1557410269135
367.15626381955855
364.63026137468955
364.6152251910647
364.5868691731912
364.5717233121187
364.59595780312225
364.61657303348846
363.91861651647207
363.9901853632105
363.8655508391976
363.8640058001765
363.9977719518531
363.9627798258661
364.1022930495438
364.0762803918959
364.1365616484598
364.113509479905
364.0842267271324
364.11032867312673
364.11785827859103
364.0952273078834
364.07396511375936
364.0497958917189
364.06229157570056
364.08666045390834
364.0078497758266
363.9817028175069
363.9014835271063
363.87751765947274
363.92305399927716
363.9538545419552
363.6735288580039
363.6740401332488
363.38587609734157
363.4226431883473
363.60493545487725
363.6049929354781
363.6663023692299
363.6283975907572
363.72623713871286
363.6897848717631
363.63547910135736
363.66896601087285
363.72382317854124
363.69287921541144
363.69226077230576
363.6646965441255
363.660403372946
363.6901412449423
363.6384148201998
363.6117329021684
363.54908564460493
363.5263756514211
363.56358408157746
363.59079134958523
363.36099005172304
363.36773092880605
362.29377294185366
363.044233175204
363.3266241051203
363.3174589720822
363.2119989260279
363.1870474670782
363.31134065655374
363.2528815542427
363.19902625658347
363.2425544381881
363.233755539253
363.28060396831563
363.2147784555739
363.2656617032456
363.3244958542603
363.2661764477028
363.7968156976895
363.8292521795005
364.0074171130427
364.03247619885565
364.0932111063962
364.1174921972398
363.9988373649588
364.0186574946023
364.42930754589537
364.417211231232
364.4896173463854
364.4726169576343
363.56020952981197
363.5724488360575
364.72641169436196
364.7421306094386
364.9966390945266
364.99014808493973
365.1198879408579
365.1075507133289
365.0528883564682
365.0332394721146
365.13741607993586
365.1794099010668
365.4896427636622
365.4899637698312
365.6183185270657
365.6150615808701
365.60058278430495
365.5824235955374
365.45659082849164
365.55858916357647
365.9336830793984
365.9415474842298
366.0686867231516
366.0664298284017
366.08232218537967
366.0659749406083
365.61559911512904
365.81562639530995
366.34385739769
366.349074850862
363.66783569220394
363.69958581856946
366.48003047429506
366.4790118956436
366.50802694005284
366.49986898975345
366.852607983162
366.85380130855134
365.3131975600371
365.84417713322017
366.7065274611013
366.71788901602815
366.8955503169797
366.88830566740614
367.21246581751757
367.21704698781406
367.26945845721576
367.27571851075186
365.85705749029063
365.83930023177226
366.9708409871939
367.0740723390524
367.43895296328685
367.4456867249206
363.6244710980623
363.6531337026673
363.470478326267
363.49080008252804
363.2041179533133
363.1888157917517
363.32668725723374
363.28825274032437
363.2541317533652
363.2948060034622
363.3296807987379
363.2824348380048
365.5933706795237
364.550589643935
363.6710980880287
363.61187985112684
363.5425614260982
362.7245240094117
362.9000665689588
362.74787962449534
363.5765808526023
363.49633493512135
363.19419158191977
363.45407344750237
363.2767248898433
363.3192793657269
363.10101940553415
363.6199716885658
363.7521987376359
363.5951148376757
363.0321707562911
363.5119415199295
363.57665302353956
363.5478873472479
363.4205474244087
363.0250419405918
363.47555653080786
363.0907032416353
363.0481194580591
363.19453807531266
363.5194502458942
363.46801737354616
363.3133335668481
362.70638077164534
363.2382867087266
362.38978426198724
363.38283308605116
363.4919453966667
363.429796009548
363.17774728905994
363.31813641423963
362.918850720617
362.73809261329876
363.0628468369768
363.4436256585365
363.0688767878088
363.2387692133886
363.1648679458193
363.37519543773607
363.1155709675832
362.6985790157632
363.30454465207544
363.2108758474255
363.0395774045602
362.3015338742442
362.6790868226696
362.5927142055734
362.92368792373554
362.9661315449478
362.5859593976371
363.0863865383017
362.3814298333731
362.86962722888967
362.78082298902893
362.6002119109319
366.8228373672591
366.8372642599543
366.8063476406274
366.69390275366214
366.4688372075658
366.44895516979017
366.4195458988891
366.3141587310698
366.0906728434708
366.01722020673753
366.0068990959746
365.8932759034981
365.66892946205866
365.55232521537016
365.5395381578279
365.45352996844895
365.2258495153024
365.02634900477244
365.01489619638915
364.92121551326437
364.73046565970685
364.5111597198525
364.5278527908738
364.4261229159157
364.2456415154266
363.9571887882248
364.02147509744674
363.94958483518826
363.6264966074685
362.88585064524136
360.88778208476174
360.8801906463186
361.20244061503774
361.26509438473954
361.46862613138666
361.426880153367
361.6198880169421
361.57362588029724
361.76513259518856
361.77868532112427
361.9070092383567
361.9564220683135
362.07419486973055
362.141465790652
367.37703598597784
367.16899699777656
367.1885559914956
367.1436693628666
367.0329025203471
366.0297912956157
367.2799079573014
367.41366998915055
365.53812958211034
365.80130717176536
365.57004952553245
363.40898873615424
365.49050727619294
365.35212922130665
360.32330430493727
361.1208644642633
361.20038177611747
364.53905477519953
360.91052256835025
361.408233631082
366.4117888668903
366.59809543150214
364.58051247971065
366.44636714482954
366.7636698516372
367.18161514982734
367.1594810590974
365.9584653311068
364.84488470557613
361.45936111693345
364.97245266024095
366.3767633099268
363.999975546169
363.998783969637
366.8294823102529
364.08823396216775
366.80688048193457
365.0392351311969
361.54424391075946
361.62470637305813
363.8798735473444
366.94105943065733
367.0933171035128
366.2235485556209
364.3528482357091
361.6822048680581
365.0723617173679
361.9756016551315
362.1217320983264
364.48159600785283
365.98729849391975
361.9505365933777
361.7946775243746
361.82259558309426
363.74298510484766
362.800638086849
365.91795347170876
361.66266838920365
364.586886623799
362.1189388433395
365.3719303516551
366.98094273851933
365.92393108994725
361.72974556645244
364.49823704671746
366.92875977162737
365.30476221461066
362.0997813552699
363.6664616076491
367.101108740657
365.72175500600537
361.43970596811414
364.3202454433507
361.89540303864055
361.9475727426204
366.2160114269208
366.07983562582456
364.8990936646636
364.10785847935773
364.4453015270185
366.40235578441934
361.18927001851426
361.5528928349465
363.8574736476389
366.29924093562545
365.9539582432348
366.68386542361117
366.5342384244421
366.7594294880474
366.821040106543
364.81302763977385
363.9508901824662
362.03964803904125
363.7937365145542
361.7966761435692
365.7897390619567
367.0840489591608
366.4601596646606
366.6117187278346
361.4027195387139
366.71713894240753
364.69475570013367
367.0407671393994
366.9005695826289
366.7652837747577
364.9542989843533
366.2624787684748
366.3434606942046
365.6323348272439
366.1551155434139
366.38565335665436
364.84906409720804
366.0030996653271
364.3804260225248
364.79038895454755
364.004864846268
361.51265833709965
361.9385109493367
364.45329080402655
363.92354156002864
361.1728849751248
364.20719443993147
364.29170512592754
365.43887844553814
362.1148089385468
363.93321954287796
361.6137872761396
367.1614663952988
363.49142355224853
365.85198542707855
363.07019495446923
363.21088748311996
365.1768500224587
362.34160019561546
360.9508711936021
362.2820836686898
365.49347846413025
365.1429431347932
367.2594525465936
365.49301939114173
366.67897747900486
365.01507907419676
361.8083330326383
360.9795571001353
362.2114601575892
361.02967369429626
362.3442876128043
365.541491008696
361.7047693874717
362.3189778311966
366.5287266924449
362.1452757682924
366.61933093043694
363.78997888284687
367.09554422341876
365.10275056538313
365.2454855183418
365.0477477037383
362.0012929083755
365.8181536020102
364.69503288799325
366.1061272357067
362.37050780808266
361.52130122304436
362.6279107224234
363.1865732325964
366.03333935696384
364.18191377756307
365.9330173082821
363.8984649435509
361.1883572161507
366.98903736407595
365.75195053119904
364.78452425190204
361.6865741475799
366.1663847066486
366.00941131967613
364.2947155786334
364.65251777245567
362.35312002546146
366.10273259066935
363.97342865607646
361.3548798155309
365.89682090328216
363.8680852394924
361.8217181702002
366.94193887721025
362.1522708744992
364.1321865299852
362.0808516016364
363.3850306636089
362.41780349720807
362.97272626441617
366.50378084362904
366.6622671228106
366.27060736528574
366.9570658398608
364.658300801284
366.7399787459202
366.334572751834
361.7349866956087
364.42774753307475
365.4513112165252
365.59657871624125
362.69843029076753
362.3587864815195
361.2923315033595
366.33635995872163
362.6034496303847
365.5388145894205
364.52834193922735
361.814544137774
365.642313863946
365.3819879072123
364.3541045728402
366.77893784056954
367.05881809844976
365.3723013740053
364.9683272169875
366.4555130275703
362.53762030216836
364.93262471303836
362.22859663187535
362.71849946194817
361.10801403720694
364.0700994290527
366.84826274436426
361.94802541499286
364.8232663433478
364.8908625172156
362.60252887799135
363.26478227428987
363.565748792981
365.8566030942852
365.7352261125673
362.0217073653577
361.8820451320428
363.90403218804636
366.3374602436665
363.79822372472404
365.4272496720655
362.699358087636
361.8772172340357
361.70855738119957
366.4689834685275
363.74342960549967
364.00944920407244
364.7684458035298
366.2238106801319
365.591095448508
365.34642593941925
362.4264415975344
362.3799893090831
362.6065986169784
362.17626520628414
361.9714892542685
362.7931798730282
365.816968298353
364.5107589531766
366.4819109237148
366.02093572054866
364.22103014449834
365.3172322123704
362.2545052777073
362.03614868114573
363.3323613218393
360.5830617245401
364.4018135010411
364.1673795689476
366.1633669105757
366.5023201809151
365.4559931948322
365.232515209322
362.2740872553643
364.3109662622562
362.34573978276075
362.19600011722633
362.8772496718191
366.2589184229321
364.6930629585164
365.8820408341553
361.474784081756
361.3424539164915
366.67881784314943
363.39357751804704
363.8966537700699
365.13415935722924
363.25664925605656
361.887202394817
361.36791044581173
361.34937892219983
361.340755687026
361.7422549348651
361.26180814233936
362.8963382045605
362.02910429686585
363.0719833675374
362.19512755468094
366.58512382564135
364.44659744251163
363.15938161953306
362.52505216699467
363.1074096017273
363.64089472070003
362.9156362551741
362.4487554916042
364.47521578157614
365.5308875733269
365.79635500354004
364.0809448591039
365.22883494867864
362.1695691795171
366.2239210089538
364.18713139167323
362.78209547536943
362.7603497097704
362.621860734167
361.25477446901175
361.30197190177574
361.4669370483433
366.0646535814487
359.4702253654898
363.9302608782232
364.48101801472177
366.18643004243665
363.78561522179956
365.47650825580405
363.64284824755686
362.003238969217
362.33015010677025
362.9190306935984
363.72031723715577
364.3263970817553
365.5224947948004
364.6533616975516
363.0867086680049
365.80484929959766
364.9534297321021
363.7835169321728
365.65561758540235
362.7180251341423
362.4733848886451
363.5958191191334
364.9009191522595
364.07440621526706
365.0289638357779
365.88105753653616
365.09192048370136
362.9058598134866
363.79923748956475
362.55398563245285
363.5440936470874
364.2519444205442
363.6496528658467
365.99862657128074
365.7796101471177
364.3091499604992
363.8942860101411
362.71973604597343
365.8904933659996
364.1480109074117
365.6767339333766
363.4732851048677
363.41772685697066
365.2005117819818
363.9518860977608
364.61073332326777
364.90308616139606
365.7539252178246
362.8102205558968
362.4440810235073
363.7812846985127
364.7978756707102
365.294112634393
364.8574370275565
363.06964396165773
365.3271872130762
365.261846995135
362.8981693286193
365.4799170965882
365.3550988409934
363.13498623710035
363.09244731130536
365.39056637920146
363.81772151374497
365.4959993477794
364.8120374843618
363.9690675645413
364.31859259421225
364.9068603070402
363.7950519695048
365.12609367266504
364.20954405900443
363.7660795387259
364.5572347769553
363.1877119157581
364.4589771727473
363.5585575708134
365.3843308173772
363.6504930583201
365.0602959102085
364.95656118924836
363.4058602982994
363.67912870271635
364.9703524535078
364.7104682761749
364.6412748942113
363.9196054990999
364.4082558681541
363.5875788274935
363.8205388456553
364.2471758540333
364.4772989029694
364.13696836406734
363.938526748268
364.1019648035822
363.1948670287991
363.2498469929989
363.19811217363474
363.1462484764903
363.3347676978887
363.3048490011908
363.26864205825217
363.4243281528611
363.462985350283
363.44685692648665
363.33887536057927
363.7019398960799
363.80403504801444
363.82855276882594
363.7708878022189
364.07040365716
364.18085183565336
364.21360502497805
364.10787683041747
364.45476564380186
364.6339813302626
364.7148600244131
364.6175558676184
364.9099118048498
365.1031133181655
365.2114648452989
369.27388069848087
365.1214228201158
365.50630293082776
365.65700610530206
365.7095088091181
365.57544066913107
365.94073971492253
366.1046541931084
366.1827844824125
366.0568201015178
366.3643490899926
366.529407797133
366.5819302580016
366.47958876878977
366.71501431446467
366.89598696046363
366.9663487999565
366.892610138891
367.03912526734086
367.2324306003464
367.3039011390376
367.26167479310817
367.35257083114976
367.5410712944242
363.47305573578893
363.27321379853265
363.58662560692414
366.15717433051117
366.15400685879945
363.2873012484515
363.23217425268086
363.4054763685823
367.2755419119396
367.312928194479
366.19803834822045
367.17780226030237
365.37923721041403
365.5965872174138
366.4656903635319
365.2058484629154
365.17676620961123
366.0327324464323
367.4698867391182
363.44186859309366
365.1700709351169
363.7643004466344
363.95230432476524
367.160041751241
364.5588388465153
364.6845199357275
364.29227733219585
366.9391128029961
366.96791612342935
366.84873660415315
363.76248985148726
365.794695157341
364.7053800580488
364.1671088935323
364.1382323468387
366.8252465652869
366.5639731790408
363.83327710498867
364.21060880338763
365.6971141857523
365.0168049286816
364.74301248466196
366.5378819643844
366.57006193176977
365.649407914454
368.7940534871626
365.5910801060198
363.442920813274
363.24160891053765
363.3891308814492
363.82631689205056
363.478299349706
366.00491084748387
364.01332550503275
363.6563235828145
368.7694001420655
363.81838048405297
367.35522914212913
366.6959505515738
366.22176294071966
367.0868116580776
366.3208314664104
363.5565068396521
363.96363122121977
364.28346247874117
366.60976849767144
363.68041045447114
367.491120405554
366.74687431894085
367.2187101316099
367.44195087878506
365.2367317754322
366.9625991341405
365.8349180805592
364.4436976687536
367.1132985152521
367.5980795366035
364.63225997754625
366.43109418605627
364.879181347194
364.7734456534686
364.19080479278085
365.3416677925138
365.7257552109466
368.09523251234754
367.66900520267444
363.32343367218243
363.4528982325995
363.610417316912
363.8876981513206
364.0024705311528
367.3015117638853
365.9078220863893
367.4508594128081
366.5311622438924
367.56149569085545
363.5800864535356
366.72517859142295
366.65166792600587
367.41660615166904
364.25804602438666
366.6538918415747
366.3303798369906
367.11773726516213
366.87827942822673
366.1481112824232
364.3070875933953
367.1127904189158
364.93436431006955
365.3030509463303
366.2811787853181
366.3240342236729
367.0186926620833
365.149796620473
366.774376731387
363.6806081274494
364.09267207581115
364.84643235298057
364.794093224988
365.33211279965997
364.71038276024615
365.6483097038064
364.5401035718117
363.69961961675466
363.681334396028
367.03709442401555
364.38272600171064
365.82410332081866
365.75674811691636
363.6753421226749
363.5955069299924
366.06431025952975
363.58467415813544
368.41296669410724
365.48762019534
364.341736860132
369.0526012740224
363.9007329823859
367.37098392046767
363.99006934717625
365.0091274144766
365.8095543669158
365.3986567865811
365.5490660516817
364.3336153873029
364.1987446099815
367.4357474128092
364.1467399607573
367.36538930017093
365.0555793059747
363.4883151335733
367.8071874071844
367.58884919763665
366.6730898405363
364.3902395344428
366.4185518155668
366.08794716187566
364.7229217098963
367.2294675584711
366.8353482784323
367.663819361889
365.44534947918123
364.85949889426456
364.5924092918393
368.00521635454214
365.2840279597806
365.78854866790243
367.3976199221633
367.7212491823525
367.5436569776651
366.47606836259587
366.7595862696153
364.31551923577
365.0661931493467
366.34195926849196
366.00523669466736
364.6292447741502
367.59942706103294
366.89394758364307
367.27169529952585
366.5889154706536
364.4301081082904
365.37617814746227
364.77352964048663
365.4974240447509
365.86654020267434
366.1686592876839
367.14849163397025
364.92307572709075
367.4806693483625
364.21914891963905
366.7555535799789
368.3085355998437
367.7235237117811
363.9372870011936
363.6815350007264
366.91145354756065
364.07028671261486
363.80103073383236
363.8991378053828
365.05561917673015
363.8067719197655
365.94852344910936
364.44035995001417
365.600987123742
367.2671767664907
364.3694806130739
363.71185850556924
365.91073758478996
366.2651235434905
363.8624615220926
365.15331271682834
363.9365689086275
363.83699740154447
363.75656831616277
364.99674055662985
366.48245780337146
364.0348898529105
364.50612167663223
365.16792301864484
365.6799745476883
367.02177367891665
367.09358934967275
364.79211645838024
368.67205242186736
363.9154169329065
367.7435977903306
364.51001385944795
366.56369837642063
367.29193237808323
367.86952598235
365.52021854600474
363.9722881619671
367.48293725275397
367.57963234806937
364.07319606299365
367.68198704398054
365.01763429810467
363.7752575703005
364.56189433604857
366.45220648986447
367.94307193022274
367.20024667057345
365.5788080706382
367.7955871269813
365.4184652984501
367.42991921098115
367.38581461087523
364.00235078186864
367.83274032879285
364.72118210730525
364.90078387004115
367.27410816674933
366.88361712870426
367.0630202363662
366.3092994259216
366.7781457253543
364.1122938047435
364.3478341904201
365.8275475783304
365.6791256679023
366.3629348674957
366.7081507365063
365.30602689976473
364.2552264569078
364.0427181798218
364.1132546590103
365.09996099837076
364.41034264003326
365.77316848666237
367.5648113677039
366.23273556855094
366.9865624560293
366.64145329521443
365.92069813090217
366.44507046252824
368.8283116482808
364.4262808071483
366.9607765919267
368.9987593282043
365.19317085989394
364.1879039130585
366.10881589836384
363.9054893459071
366.1462603271862
365.1296058242938
366.86083418429047
367.6021830024123
364.1066375711759
366.9283612087227
366.027764622938
364.0449795441731
364.6251552332069
367.1531714099498
363.9539753472229
368.07421940861394
367.4454599283766
364.9829459312889
367.75435705266926
365.47019455975743
367.1041055639413
366.7307913428799
364.2353542921503
365.3148313590454
367.1325224506595
367.92295760369336
364.89556188674476
364.95821269124116
366.5339754261245
366.93601182384407
367.37689314326815
367.03154981971966
366.7161384762822
365.50082778953214
364.588211168406
365.84464467397703
364.2919219545693
365.4269334924293
365.2087040024481
365.91264269186394
364.73146662297034
365.6993887259819
364.1715756357989
368.4071775230798
366.78850509258064
366.8111635812282
364.62897834533027
367.8388566502518
367.6942049214564
367.0207231054138
367.5531436106714
364.34051153402345
366.38042125022264
366.59206500989876
368.6172025161278
364.5792329272303
367.2138565791848
366.00365624839895
364.39280011689846
368.7480127474476
366.61007997531675
364.10210371227026
364.3644684032481
366.19895460104874
367.5689578323372
366.6995134679363
367.1420635512015
364.86571343123427
366.35780066222685
364.33187588468064
365.2727130570077
365.988621051119
366.2184994919329
367.5867463820113
365.06810319759126
368.2295279946001
366.7662455075755
366.255392999379
365.1632312283183
368.11728170252985
366.93142165506987
366.4587215034208
365.74636517287803
365.45819480404197
366.93776602109136
368.02136774020875
366.92791980418826
367.03275554340024
365.8919429935791
368.8070081157152
365.39160163177905
366.4731107782268
366.67930379783985
364.2635789092046
367.16240844529233
365.5063030455611
368.0200131098673
365.78411125118384
368.4224257331173
366.1704515096502
364.811790201912
367.3733042534015
364.7082537675304
366.049804565004
367.19530333278044
364.9624920040731
367.65102613306925
366.59633773709317
367.68658745154903
366.9800130502487
368.2625410882778
364.9041252076091
366.12760074576397
364.79024675870096
367.4971303984067
365.06858550459975
367.284454496282
366.0188972424266
367.8532279774709
366.27428943936957
364.6274294822482
364.42112354509334
367.7286042102335
365.43594587749965
364.50306770620244
366.4062362754125
366.1907340932501
365.41422734417836
366.30664048763356
367.3280787154719
368.51687426492094
366.99794965131997
368.10756685939396
366.07089175601715
364.6204022258795
364.4786327410531
367.17617124097376
368.3415551440658
365.89364579855743
366.82643734374153
367.9432803938961
365.3195072514449
368.191077343068
367.7445532621129
366.7326628305221
365.53339121242567
365.0635428253759
365.21930703967996
367.6932716874604
368.0833178110349
368.21354644795423
367.84562283979216
365.7729017969564
367.60916327037893
365.1023950575955
365.33971090868135