/*--------------------------------*- C++ -*----------------------------------*\
| =========                 |                                                 |
| \\      /  F ield         | OpenFOAM: The Open Source CFD Toolbox           |
|  \\    /   O peration     | Version:  2406                                  |
|   \\  /    A nd           | Website:  www.openfoam.com                      |
|    \\/     M anipulation  |                                                 |
\*---------------------------------------------------------------------------*/
FoamFile
{
    version     2.0;
    format      ascii;
    arch        "LSB;label=32;scalar=64";
    class       volScalarField;
    location    "0.00456296/fluid";
    object      p;
}
// * * * * * * * * * * * * * * * * * * * * * * * * * * * * * * * * * * * * * //

dimensions      [1 -1 -2 0 0 0 0];

internalField   nonuniform List<scalar> 
53600
(
141.17647
126.46183
111.74665
97.031762
82.31668
67.601736
52.88669
38.171714
23.456689
8.7416932
-5.9733192
-20.68833
-35.403326
-50.118363
-64.833324
-79.548406
-94.263308
-108.97846
-123.69326
-138.40863
143.70967
128.99509
114.27984
99.565002
84.84989
70.134969
55.419911
40.704945
25.989916
11.274924
-3.4400878
-18.155099
-32.87009
-47.585135
-62.300081
-77.015186
-91.730054
-106.44525
-121.15998
-135.87542
146.23882
131.52427
116.80899
102.09417
87.379046
72.664133
57.949071
43.234111
28.519081
13.804091
-0.91092061
-15.625932
-30.340921
-45.055968
-59.770908
-74.486021
-89.200878
-103.9161
-118.63079
-133.34626
148.76744
134.0529
119.3376
104.62279
89.907663
75.192755
60.477692
45.762733
31.047704
16.332715
1.6177048
-13.097306
-27.812293
-42.527342
-57.242279
-71.957394
-86.672246
-101.38747
-116.10216
-130.81763
151.29667
136.58214
121.86683
107.15203
92.436897
77.721993
63.006928
48.291971
33.576942
18.861954
4.146945
-10.568066
-25.283051
-39.998101
-54.713035
-69.428153
-84.143
-98.858226
-113.57291
-128.28839
153.82688
139.11235
124.39703
109.68224
94.9671
80.252201
65.537133
50.822179
36.107149
21.392163
6.6771549
-8.0378557
-22.75284
-37.46789
-52.182822
-66.897942
-81.612781
-96.328013
-111.04269
-125.75818
156.35803
141.6435
126.92816
112.21338
97.498229
82.783337
68.068267
53.353316
38.638287
23.923302
9.2082946
-5.506716
-20.221699
-34.936751
-49.651681
-64.366804
-79.081633
-93.796872
-108.51153
-123.22701
158.89003
144.17547
129.46008
114.74532
100.03015
85.31527
70.600199
55.885252
41.170224
26.45524
11.740234
-2.9747772
-17.68976
-32.404815
-47.119745
-61.834876
-76.549693
-91.264948
-105.97955
-120.695
161.42335
146.70882
131.99331
117.27859
102.5634
87.848545
73.133471
58.418528
43.703503
28.988519
14.273514
-0.44149781
-15.156482
-29.871539
-44.586471
-59.301614
-74.016421
-88.731713
-103.44619
-118.16167
163.9583
149.2436
134.528
119.81331
105.09813
90.383278
75.668212
60.95327
46.238247
31.523265
16.808259
2.0932483
-12.621738
-27.336793
-42.051734
-56.766877
-71.481706
-86.197016
-100.9114
-115.62671
166.49152
151.77689
137.06155
122.34673
107.6316
92.916703
78.201645
63.486694
48.771672
34.056688
19.341684
4.626675
-10.088309
-24.803354
-39.518296
-54.233404
-68.948259
-83.663449
-98.378094
-113.09348
169.02514
154.31055
139.59525
124.88043
110.1653
95.450402
80.735345
66.020391
51.305369
36.590384
21.875381
7.1603731
-7.5546092
-22.269651
-36.984592
-51.699691
-66.414548
-81.129736
-95.844424
-110.55984
171.55905
156.84447
142.12918
127.41437
112.69924
97.984339
83.269282
68.554327
53.839305
39.12432
24.409318
9.6943102
-5.0206709
-19.735711
-34.45065
-49.165745
-63.880603
-78.595791
-93.310488
-108.02591
174.09318
159.3786
144.66332
129.9485
115.23338
100.51847
85.803415
71.088459
56.373438
41.658453
26.943451
12.228444
-2.4865359
-17.201575
-31.916513
-46.631605
-61.346463
-76.061648
-90.776347
-105.49177
176.62749
161.91291
147.19763
132.48281
117.76769
103.05278
88.337725
73.622769
58.907748
44.192763
29.477762
14.762755
0.047775843
-14.667262
-29.3822
-44.097292
-58.812143
-73.527328
-88.242028
-102.95745
179.16197
164.44739
149.7321
135.01729
120.30216
105.58726
90.8722
76.157244
61.442223
46.727238
32.012238
17.297231
2.5822528
-12.132784
-26.847721
-41.56281
-56.277662
-70.992844
-85.707543
-100.42296
181.69658
166.98199
152.26671
137.55189
122.83677
108.12186
93.406805
78.691848
63.976828
49.261843
34.546844
19.831837
5.1168598
-9.5981765
-24.313113
-39.0282
-53.743052
-68.45823
-83.17293
-97.888348
184.23131
169.51672
154.80144
140.08662
125.3715
110.65659
95.941534
81.226578
66.511558
51.796572
37.081574
22.366567
7.6515912
-7.0634443
-21.77838
-36.493462
-51.20832
-65.923493
-80.638193
-95.35361
186.76616
172.05157
157.33629
142.62147
127.90635
113.19144
98.476383
83.761427
69.046407
54.331422
39.616424
24.901417
10.186442
-4.5285929
-19.243529
-33.958608
-48.673468
-63.388637
-78.103337
-92.818751
189.30111
174.58652
159.87124
145.15642
130.4413
115.72639
101.01133
86.296376
71.581356
56.866371
42.151374
27.436367
12.721393
-1.9936416
-16.708577
-31.423654
-46.138515
-60.853681
-75.568382
-90.283795
191.83614
177.12155
162.40627
147.69145
132.97633
118.26142
103.54636
88.831405
74.116386
59.401401
44.686405
29.971398
15.256424
0.54138867
-14.173544
-28.888621
-43.603482
-58.318645
-73.033347
-87.748758
194.37124
179.65666
164.94137
150.22656
135.51143
120.79653
106.08147
91.366515
76.651496
61.936511
47.221515
32.506508
17.791535
3.0764984
-11.63843
-26.353508
-41.068369
-55.78353
-70.498232
-85.213643
196.90643
182.19185
167.47656
152.76175
138.04662
123.33171
108.61666
93.901703
79.186684
64.471699
49.756705
35.041697
20.326725
5.6116893
-9.1032414
-23.818317
-38.533178
-53.248337
-67.96304
-82.678448
199.44168
184.7271
170.01181
155.297
140.58187
125.86696
111.15191
96.436953
81.721935
67.00695
52.291956
37.576948
22.861978
8.1469433
-6.5679897
-21.283064
-35.997925
-50.713082
-65.427785
-80.143193
201.97698
187.26239
172.54711
157.83229
143.11717
128.40226
113.68721
98.97225
84.257232
69.542246
54.827253
40.112244
25.397279
10.682241
-4.0326897
-18.747768
-33.462626
-48.177782
-62.892486
-77.607892
204.51232
189.79774
175.08245
160.36764
145.65251
130.93761
116.22255
101.50759
86.792577
72.077591
57.362599
42.64759
27.932623
13.217586
-1.4973444
-16.21242
-30.92728
-45.642434
-60.357138
-75.072544
207.04772
192.33313
177.61785
162.90303
148.1879
133.473
118.75794
104.04299
89.327971
74.612985
59.897995
45.182984
30.468017
15.752982
1.0380515
-13.677025
-28.391884
-43.107036
-57.821741
-72.537146
209.58314
194.86855
180.15327
165.43845
150.72333
136.00842
121.29336
106.57841
91.863393
77.148407
62.433417
47.718408
33.003439
18.288406
3.5734723
-11.141598
-25.856459
-40.571612
-55.286316
-70.001721
212.11859
197.404
182.68872
167.9739
153.25878
138.54387
123.82882
109.11386
94.398844
79.68386
64.968869
50.253861
35.538892
20.82386
6.1089256
-8.6061431
-23.321003
-38.036159
-52.750862
-67.466266
214.65408
199.93949
185.22421
170.50939
155.79426
141.07936
126.3643
111.64935
96.934333
82.219348
67.504357
52.78935
38.07438
23.359349
8.6444146
-6.0706535
-20.785514
-35.500669
-50.215372
-64.930775
217.18959
202.475
187.75971
173.0449
158.32977
143.61487
128.89981
114.18486
99.469843
84.754858
70.039868
55.32486
40.609892
25.894861
11.179926
-3.5351416
-18.250002
-32.965156
-47.67986
-62.395262
219.72511
205.01052
190.29523
175.58042
160.8653
146.15039
131.43534
116.72038
102.00537
87.29038
72.57539
57.860383
43.145414
28.430384
13.715449
-0.99961799
-15.714478
-30.429633
-45.144336
-59.859739
222.26065
207.54606
192.83077
178.11596
163.40083
148.68593
133.97087
119.25592
104.5409
89.825918
75.110929
60.395921
45.680953
30.965923
16.250988
1.535922
-13.178937
-27.894095
-42.608797
-57.324198
224.79621
210.08162
195.36633
180.65152
165.93639
151.22149
136.50643
121.79148
107.07646
92.361479
77.64649
62.931482
48.216515
33.501485
18.78655
4.0714844
-10.643377
-25.35853
-40.073234
-54.788635
227.33178
212.61719
197.9019
183.1871
168.47197
153.75706
139.04201
124.32705
109.61204
94.897052
80.182064
65.467056
50.752088
36.037058
21.322123
6.6070587
-8.1078042
-22.822954
-37.53766
-52.25306
229.86735
215.15277
200.43748
185.72267
171.00754
156.29264
141.57758
126.86263
112.14761
97.432627
82.717639
68.002631
53.287664
38.572634
23.857699
9.1426352
-5.5722287
-20.287377
-35.002084
-49.717483
232.40294
217.68835
202.97306
188.25825
173.54312
158.82822
144.11317
129.39821
114.6832
99.968211
85.253223
70.538215
55.823248
41.108218
26.393283
11.67822
-3.0366449
-17.751792
-32.4665
-47.181898
234.93854
220.22395
205.50866
190.79385
176.07872
161.36382
146.64876
131.93381
117.2188
102.50381
87.788823
73.073815
58.358848
43.643819
28.928883
14.213821
-0.50104489
-15.21619
-29.930899
-44.646297
237.47414
222.75956
208.04427
193.32946
178.61433
163.89943
149.18437
134.46942
119.7544
105.03942
90.324429
75.60942
60.894454
46.179425
31.464489
16.749427
2.034561
-12.680583
-27.395293
-42.110689
240.00974
225.29516
210.57987
195.86507
181.14993
166.43503
151.71997
137.00502
122.29
107.57502
92.860032
78.145023
63.430058
48.715028
34.000092
19.285031
4.5701642
-10.144979
-24.85969
-39.575085
242.54535
227.83077
213.11547
198.40067
183.68554
168.97064
154.25558
139.54063
124.82561
110.11063
95.395639
80.680631
65.965665
51.250636
36.535699
21.820639
7.1057713
-7.6093705
-22.324083
-37.039477
245.08097
230.36638
215.65109
200.93629
186.22116
171.50626
156.7912
142.07625
127.36123
112.64625
97.931259
83.21625
68.501285
53.786256
39.071319
24.35626
9.6413911
-5.0737498
-19.788463
-34.503857
247.61659
232.902
218.18671
203.47191
188.75677
174.04187
159.32681
144.61186
129.89685
115.18186
100.46687
85.751864
71.036899
56.32187
41.606934
26.891874
12.177005
-2.5381346
-17.252849
-31.968241
250.1522
235.43762
220.72232
206.00752
191.29239
176.57749
161.86243
147.14748
132.43246
117.71748
103.00249
88.287481
73.572517
58.857487
44.142551
29.427492
14.712622
-0.0025167087
-14.717231
-29.432624
252.68783
237.97324
223.25795
208.54315
193.82802
179.11312
164.39806
149.6831
134.96809
120.2531
105.53812
90.823109
76.108144
61.393115
46.678178
31.96312
17.24825
2.5331117
-12.181604
-26.896995
255.22346
240.50887
225.79358
211.07878
196.36365
181.64875
166.93369
152.21873
137.50372
122.78873
108.07375
93.358739
78.643774
63.928745
49.213808
34.49875
19.78388
5.0687421
-9.6459743
-24.361365
257.75908
243.04449
228.3292
213.6144
198.89927
184.18437
169.46931
154.75436
140.03934
125.32436
110.60937
95.894361
81.179397
66.464368
51.749431
37.034373
22.319502
7.6043654
-7.1103518
-21.825741
260.29471
245.58012
230.86483
216.15003
201.43489
186.71999
172.00493
157.28998
142.57497
127.85998
113.145
98.429985
83.715021
68.999992
54.285055
39.569998
24.855126
10.13999
-4.5747279
-19.290117
262.83034
248.11575
233.40046
218.68566
203.97052
189.25563
174.54057
159.82561
145.1106
130.39561
115.68063
100.96562
86.250655
71.535626
56.820688
42.105631
27.390759
12.675624
-2.0390948
-16.754482
265.36597
250.65139
235.9361
221.22129
206.50616
191.79126
177.0762
162.36125
147.64624
132.93125
118.21626
103.50125
88.786289
74.07126
59.356323
44.641266
29.926394
15.211259
0.4965396
-14.218847
267.9016
253.18701
238.47172
223.75692
209.04178
194.32689
179.61183
164.89688
150.18186
135.46687
120.75189
106.03688
91.321916
76.606887
61.891949
47.176893
32.46202
17.746886
3.0321658
-11.68322
270.43723
255.72264
241.00735
226.29255
211.57741
196.86251
182.14745
167.4325
152.71749
138.0025
123.28752
108.57251
93.857543
79.142514
64.427576
49.71252
34.997647
20.282513
5.5677928
-9.1475925
272.97286
258.25827
243.54298
228.82818
214.11305
199.39815
184.68309
169.96814
155.25312
140.53814
125.82315
111.10814
96.393179
81.67815
66.963212
52.248156
37.533283
22.818149
8.1034283
-6.6119558
275.50849
260.7939
246.07861
231.36381
216.64867
201.93378
187.21872
172.50377
157.78875
143.07376
128.35878
113.64377
98.928807
84.213777
69.49884
54.783784
40.068911
25.353777
10.639056
-4.0763276
278.04412
263.32953
248.61424
233.89944
219.1843
204.4694
189.75434
175.03939
160.32438
145.60939
130.89441
116.1794
101.46443
86.749405
72.034467
57.319412
42.604538
27.889405
13.174683
-1.5406991
280.57975
265.86516
251.14987
236.43507
221.71994
207.00504
192.28998
177.57503
162.86002
148.14503
133.43004
118.71503
104.00007
89.285041
74.570103
59.855048
45.140175
30.425041
15.71032
0.99493763
283.11539
268.4008
253.68551
238.97071
224.25557
209.54067
194.82562
180.11066
165.39565
150.68066
135.96568
121.25067
106.53571
91.820677
77.105739
62.390684
47.67581
32.960677
18.245955
3.5305745
285.65101
270.93642
256.22114
241.50633
226.7912
212.0763
197.36124
182.64629
167.93128
153.21629
138.50131
123.7863
109.07133
94.356304
79.641366
64.926311
50.211438
35.496304
20.781583
6.0662022
288.18664
273.47205
258.75676
244.04196
229.32682
214.61193
199.89687
185.18192
170.4669
155.75192
141.03693
126.32192
111.60696
96.89193
82.176993
67.461938
52.747064
38.031931
23.317209
8.6018296
290.72227
276.00768
261.29239
246.57759
231.86246
217.14756
202.4325
187.71755
173.00254
158.28755
143.57257
128.85756
114.14259
99.427565
84.712627
69.997573
55.282699
40.567565
25.852844
11.137464
293.2579
278.54331
263.82802
249.11322
234.39808
219.68321
204.96813
190.25318
175.53817
160.82318
146.1082
131.39319
116.67823
101.9632
87.24826
72.533206
57.818332
43.103198
28.388477
13.673099
295.79353
281.07894
266.36364
251.64885
236.93371
222.21882
207.50376
192.78881
178.0738
163.35881
148.64383
133.92881
119.21385
104.49882
89.783884
75.06883
60.353956
45.638823
30.924101
16.208723
298.32914
283.61455
268.89926
254.18448
239.46934
224.75443
210.03938
195.32443
180.60942
165.89443
151.17945
136.46443
121.74947
107.03444
92.319506
77.604453
62.889578
48.174445
33.459724
18.744345
300.86477
286.15018
271.43489
256.7201
242.00496
227.29006
212.57501
197.86005
183.14505
168.43006
153.71508
139.00006
124.2851
109.57007
94.855136
80.140082
65.425207
50.710074
35.995353
21.279974
303.40039
288.68581
273.97052
259.25572
244.54058
229.82568
215.11063
200.39568
185.68067
170.96568
156.2507
141.53569
126.82073
112.1057
97.390762
82.67571
67.960833
53.245702
38.530979
23.8156
305.93601
291.22142
276.50614
261.79133
247.07619
232.3613
217.64625
202.93129
188.21629
173.5013
158.78632
144.07131
129.35635
114.64132
99.926378
85.211326
70.496448
55.781316
41.066594
26.351214
308.47161
293.75702
279.04174
264.32692
249.61181
234.89691
220.18186
205.4669
190.7519
176.03691
161.32193
146.60692
131.89196
117.17693
102.462
87.746935
73.032065
58.316919
43.602202
28.886824
311.00722
296.29262
281.57735
266.86253
252.14742
237.43252
222.71747
208.00252
193.28752
178.57253
163.85755
149.14254
134.42758
119.71254
104.9976
90.282547
75.567684
60.852537
46.137814
31.422435
313.54282
298.82822
284.11295
269.39813
254.68303
239.96812
225.25308
210.53812
195.82312
181.10813
166.39316
151.67814
136.96318
122.24816
107.53321
92.818162
78.103272
63.388153
48.673416
33.958038
316.07841
301.36385
286.64851
271.93372
257.21862
242.50371
227.78868
213.07372
198.35873
183.64374
168.92876
154.21375
139.49878
124.78376
110.06881
95.353765
80.638865
65.923752
51.209013
36.493634
318.61398
303.89939
289.18413
274.46931
259.75421
245.0393
230.32428
215.60931
200.89432
186.17933
171.46436
156.74934
142.03437
127.31936
112.60439
97.88936
83.174445
68.459314
53.744625
39.029226
321.14955
306.43494
291.71971
277.00488
262.2898
247.57488
232.85986
218.1449
203.42991
188.71492
173.99995
159.28494
144.56996
129.85495
115.13998
100.42495
85.710025
70.994926
56.280169
41.564794
323.6851
308.97049
294.25527
279.54043
264.82537
250.11044
235.39544
220.68047
205.9655
191.2505
176.53553
161.82052
147.10554
132.39053
117.67555
102.96053
88.245589
73.530502
58.815719
44.100353
326.22063
311.50602
296.79082
282.07597
267.36093
252.64599
237.93101
223.21603
208.50107
193.78607
179.0711
164.3561
149.6411
134.9261
120.2111
105.49609
90.781135
76.066058
61.351258
46.635896
328.75615
314.04153
299.32635
284.61149
269.89648
255.18153
240.46657
225.75158
211.03663
196.32163
181.60666
166.89166
152.17665
137.46167
122.74664
108.03165
93.316661
78.601599
63.886777
49.171422
331.29164
316.57702
301.86187
287.14699
272.43201
257.71704
243.00212
228.28711
213.57218
198.85718
184.1422
169.42721
154.71219
139.99722
125.28216
110.56719
95.852166
81.137123
66.422272
51.706925
333.82711
319.11247
304.39736
289.68246
274.96753
260.25254
245.53765
230.82263
216.10772
201.39271
186.67774
171.96276
157.24771
142.53276
127.81766
113.10272
98.387644
83.672627
68.957737
54.242403
336.36255
321.6479
306.93284
292.21791
277.50305
262.78801
248.07318
233.35813
218.64325
203.92823
189.21326
174.49829
159.78321
145.06829
130.35314
115.63824
100.9231
86.208116
71.493172
56.777855
338.89797
324.1833
309.46831
294.75333
280.03855
265.32346
250.60871
235.89362
221.17879
206.46375
191.74878
177.03382
162.31871
147.60383
132.8886
118.17375
103.45853
88.743596
74.028581
59.313288
341.43337
326.71867
312.00378
297.28874
282.57408
267.85892
253.14426
238.42912
223.71434
208.99929
194.28432
179.56938
164.85421
150.13938
135.42406
120.70928
105.99394
91.27908
76.563972
61.848709
343.96877
329.25403
314.53926
299.82413
285.10962
270.39437
255.67984
240.96463
226.24992
211.53484
196.81987
182.10496
167.38972
152.67496
137.95951
123.24484
108.52935
93.814578
79.099346
64.384128
346.5043
331.78953
317.0749
302.35966
287.64534
272.92996
258.21559
243.5003
228.78567
214.07056
199.3556
184.64071
169.92539
155.21072
140.49512
125.78056
111.06489
96.350226
81.63486
66.919675
349.04001
334.32525
319.61081
304.89542
290.18135
275.46581
260.75164
246.03622
231.32171
216.60656
201.89159
187.17675
172.46133
157.74677
143.03097
128.31658
113.60066
98.886155
84.17059
69.455399
351.57431
336.85863
322.14502
307.42917
292.7155
277.99968
263.28578
248.5702
233.85582
219.14062
204.42565
189.71086
174.99529
160.2809
145.56482
130.85071
116.13439
101.42032
86.70393
71.989628
354.10748
339.39183
324.67812
309.9622
295.24887
280.53283
265.81925
251.10349
236.38929
221.67402
206.95906
192.24434
177.5286
162.81439
148.098
133.38411
118.66744
103.95347
89.237173
74.522866
356.64027
341.92494
327.21161
312.4954
297.78253
283.06615
268.35296
253.63696
238.92297
224.20762
209.49266
194.77802
180.06207
165.3481
150.63133
135.91779
121.20066
106.48698
91.770321
77.055693
359.17353
344.45797
329.74519
315.02857
300.31632
285.59949
270.8868
256.17049
241.45676
226.74131
212.02634
197.31181
182.59561
167.88194
153.16468
138.45158
123.73385
109.02058
94.303369
79.588978
361.70688
346.99109
332.27896
317.56181
302.85031
288.13293
273.42084
258.70415
243.99074
229.27515
214.56019
199.84579
185.12926
170.41599
155.69812
140.98557
126.2671
111.55435
96.836498
82.122342
364.24074
349.52461
334.81327
320.09547
305.38488
290.66681
275.95545
261.23829
246.52527
231.80952
217.09456
202.38032
187.66341
172.9506
158.232
143.52015
128.80076
114.08868
99.370025
84.656207
366.77512
352.05857
337.3482
322.62958
307.92009
293.20117
278.4907
263.77296
249.0604
234.34446
219.6295
204.91546
190.19808
175.48585
160.76637
146.05537
131.33487
116.62361
101.90399
87.190593
369.31002
354.59295
339.88375
325.16411
310.45596
295.736
281.02659
266.30815
251.59614
236.87996
222.165
207.45119
192.73327
178.02174
163.3012
148.59124
133.8694
119.15915
104.43837
89.72549
371.84541
357.1277
342.41988
327.69901
312.99246
298.27124
283.56308
268.8438
254.13244
239.41598
224.70102
209.98749
195.26892
180.55824
165.83644
151.12773
136.40431
121.69529
106.97312
92.260879
374.38129
359.66282
344.95662
330.23427
315.52959
300.80686
286.10018
271.3799
256.66929
241.9525
227.23753
212.52434
197.80502
183.09533
168.37206
153.66486
138.93956
124.23203
109.50823
94.796756
376.91768
362.1983
347.49399
332.76985
318.06737
303.34284
288.63788
273.91643
259.20668
244.48951
229.77455
215.06174
200.34155
185.63303
170.90804
156.20265
141.47514
126.76939
112.04371
97.333144
379.45463
364.73417
350.03203
335.30578
320.60585
305.87921
291.17622
276.4534
261.74464
247.02702
232.31206
217.59969
202.87853
188.17137
173.44441
158.74112
144.01107
129.30743
114.57957
99.870088
381.99219
367.27047
352.57081
337.84207
323.14507
308.41597
293.71522
278.99084
264.28319
249.56506
234.8501
220.13824
205.41596
190.71037
175.98116
161.28034
146.54736
131.8462
117.11587
102.40765
384.53045
369.80727
355.11039
340.37876
325.68509
310.95314
296.25493
281.52877
266.82235
252.10366
237.3887
222.6774
207.95389
193.25008
178.51834
163.82035
149.08404
134.38578
119.65266
104.94589
387.06949
372.34463
357.65086
342.9159
328.22597
313.49079
298.79539
284.06724
269.36216
254.64285
239.92789
225.21721
210.49236
195.79054
181.05598
166.36122
151.62117
136.92624
122.19001
107.48492
389.60939
374.88263
360.1923
345.45353
330.76777
316.02894
301.33665
286.60629
271.90267
257.18268
242.46772
227.75772
213.03141
198.33179
183.59413
168.90302
154.1588
139.46767
124.728
110.02481
392.15027
377.42137
362.7348
347.99171
333.31056
318.56767
303.87874
289.14598
274.4439
259.72318
245.00822
230.29895
215.57109
200.87388
186.13285
171.44581
156.69697
142.01016
127.26672
112.56567
394.6922
379.96092
365.27843
350.53051
335.8544
321.10701
306.42171
291.68635
276.98589
262.2644
247.54944
232.84094
218.11146
203.41684
188.67218
173.98964
159.23576
144.55378
129.80625
115.10758
397.23526
382.50135
367.82325
353.06998
338.39931
323.64703
308.96556
294.22745
279.52866
264.80637
250.09141
235.3837
220.65255
205.96069
191.2122
176.53454
161.77522
147.09859
132.34667
117.65063
399.77952
385.04273
370.36932
355.61016
340.94532
326.18777
311.51031
296.76932
282.0722
267.34911
252.63415
237.92724
223.19442
208.50544
193.75293
179.08055
164.31539
149.64465
134.88803
120.19487
402.32501
387.5851
372.91666
358.1511
343.49244
328.72928
314.05594
299.31199
284.61652
269.89263
255.17767
240.47156
225.7371
211.05106
196.29444
181.62766
166.85631
152.19198
137.43038
122.74035
404.87175
390.12847
375.46529
360.69281
346.04064
331.27159
316.60241
301.85549
287.16158
272.43692
257.72196
243.01662
228.28059
213.59753
198.83674
184.17586
169.39802
154.7406
139.97374
125.28708
407.41975
392.67286
378.0152
363.23533
348.5899
333.81472
319.14967
304.39981
289.70734
274.98197
260.267
245.56238
230.8249
216.14478
201.37986
186.7251
171.94052
157.2905
142.51811
127.83506
409.969
395.21825
380.56639
365.77867
351.14016
336.35871
321.69767
306.94496
292.25376
277.52774
262.81277
248.10879
233.37005
218.69278
203.92384
189.27536
174.48385
159.84167
145.06349
130.38429
412.51949
397.76464
383.11884
368.32284
353.69139
338.90357
324.24634
309.49093
294.80076
280.07419
265.35922
250.6558
235.91602
221.24144
206.46869
191.82658
177.02801
162.39411
147.60987
132.93477
415.07122
400.31202
385.67256
370.8679
356.24355
341.44934
326.79561
312.03772
297.3483
282.62127
267.9063
253.20333
238.4628
223.7907
209.01445
194.37873
179.57306
164.94783
150.15724
135.48649
417.62426
402.86044
388.22761
373.41389
358.79661
343.99605
329.34542
314.5853
299.89629
285.16894
270.45396
255.75132
241.01038
226.34051
211.56117
196.93178
182.11904
167.50286
152.70565
138.03952
420.17872
405.40997
390.78407
375.96091
361.35059
346.5438
331.89573
317.13369
302.44469
287.71714
273.00216
258.29972
243.55877
228.89082
214.10891
199.48576
184.66605
170.05931
155.25517
140.59396
422.73479
407.96077
393.34212
378.50912
363.90557
349.09267
334.44655
319.68289
304.99345
290.26582
275.55084
260.84848
246.10796
231.44163
216.65777
202.04073
187.21426
172.61735
157.80596
143.15002
425.29279
410.5131
395.90205
381.05876
366.46166
351.64281
336.99788
322.23291
307.54255
292.81494
278.09996
263.39757
248.65798
233.99296
219.2079
204.59681
189.76389
175.17727
160.35828
145.70801
427.85322
413.06736
398.46429
383.61016
369.01912
354.19444
339.54981
324.78381
310.09197
295.36447
280.64949
265.94699
251.20887
236.54489
221.75953
207.15426
192.31528
177.73949
162.91253
148.26843
430.41681
415.62415
401.02946
386.16383
371.57829
356.74787
342.10249
327.33567
312.64174
297.91438
283.1994
268.49676
253.76072
239.09756
224.31296
209.71342
194.86894
180.30465
165.46931
150.83201
432.98457
418.18432
403.59845
388.72045
374.13969
359.30353
344.65616
329.88861
315.19191
300.46468
285.74969
271.04694
256.31366
241.65123
226.86861
212.27481
197.42556
182.87363
168.02947
153.39975
435.55793
420.74908
406.17249
391.281
376.70407
361.862
347.21119
332.44284
317.74261
303.01539
288.3004
273.59764
258.86789
244.20625
229.42708
214.83918
199.9861
185.44765
170.59422
155.9731
438.13884
423.32008
408.75324
393.8468
379.27244
364.42411
349.76806
334.99864
320.29401
305.56658
290.85159
276.14904
261.42369
246.76312
231.98918
217.40754
202.5519
188.02839
173.16521
158.55399
440.72995
425.8996
411.34297
396.41968
381.84618
366.99095
352.32752
337.55642
322.84637
308.11838
293.40339
278.70139
263.98146
249.32257
234.55602
219.98128
205.12477
190.61811
175.74472
161.14509
443.33497
428.4908
413.9448
399.00217
384.42725
369.56405
354.89058
340.1168
325.4001
310.67102
295.95603
281.25512
266.54184
251.88563
237.12912
222.56233
207.70726
193.21992
178.33591
163.7501
445.95911
431.09815
416.56305
401.59784
387.01832
372.14556
357.45874
342.68073
327.95591
313.22499
298.51
283.81093
269.10577
254.45378
239.71062
225.1534
210.30292
195.83816
180.94326
166.37423
448.60964
433.72787
419.20359
404.21152
389.62306
374.7384
360.0341
345.24964
330.51487
315.78112
301.06613
286.36989
271.67467
257.02914
242.30346
227.75813
212.9166
198.47869
183.57296
169.02475
451.29614
436.38799
421.87394
406.84945
392.24613
377.34631
362.61941
347.82539
333.07843
318.34052
303.62552
288.93344
274.25042
259.61445
244.91136
230.38119
215.55452
201.14903
186.23308
171.71124
454.0305
439.08846
424.58344
409.51952
394.89339
379.97388
365.21796
350.4101
335.64807
320.9043
306.1893
291.50309
276.83513
262.213
247.53893
233.02845
218.22458
203.85853
188.93354
174.44559
456.82953
441.84354
427.34571
412.23345
397.5735
382.62774
367.83453
353.00701
338.22627
323.47447
308.75948
294.08128
279.43203
264.82957
250.19278
235.70855
220.93852
206.62079
191.68862
177.24461
459.72545
444.68086
430.18577
415.01246
400.30256
385.32081
370.4798
355.62503
340.82113
326.05875
311.34375
296.67614
282.05005
267.47484
252.88585
238.43761
223.71752
209.46084
194.52593
180.14052
462.7813
447.65217
433.14642
417.89181
403.1089
388.07802
373.1769
358.28584
343.4537
328.67787
313.96288
299.30872
284.71087
270.17193
255.64306
241.24395
226.59686
212.42149
197.49724
183.19637
466.07673
450.81575
436.27067
420.907
406.02303
390.92855
375.95451
361.01699
346.15085
331.35839
316.64339
302.00587
287.44201
272.94954
258.49359
244.15808
229.61205
215.54573
200.66081
186.49179
469.6133
454.1584
439.545
424.04983
409.03659
393.86298
378.80186
363.80541
348.89806
334.08518
319.37019
304.75308
290.23043
275.79689
261.42802
247.17163
232.75488
218.82006
204.00346
190.02836
473.2356
457.56125
442.89447
427.26089
412.07963
396.79864
381.62892
366.55655
351.59873
336.7611
322.0461
307.45374
292.98156
278.62395
264.36367
250.21467
235.96593
222.16953
207.4063
193.65066
477.06285
461.18918
446.48684
430.66775
415.22822
399.77991
384.4698
369.30269
354.28588
339.42015
324.70516
310.14089
295.72771
281.46482
267.34494
253.36326
239.37279
225.76189
211.03424
197.4779
482.9155
466.47248
451.39622
435.18328
419.33616
403.64778
388.17477
372.90605
357.82984
342.9367
328.2217
313.68485
299.33107
285.16979
271.21281
257.4712
243.88832
230.67127
216.31753
203.33056
494.87577
475.94988
459.42535
442.54304
426.23095
410.30316
394.69164
379.34224
364.22078
349.30719
334.5922
320.07579
305.76726
291.68667
277.86819
264.36598
251.24808
238.7004
225.79493
215.29082
512.23071
487.90429
469.28609
451.88472
435.32136
419.27521
403.59949
388.21372
373.07217
358.14957
343.43458
328.92718
314.63874
300.59451
286.84023
273.45639
260.58976
248.56113
237.74934
232.64575
141.06527
126.35051
111.63537
96.920456
82.205379
67.490406
52.775365
38.060372
23.345348
8.6303465
-6.0846667
-20.799674
-35.514673
-50.229692
-64.944663
-79.659711
-94.37463
-109.08974
-123.80459
-138.51984
143.55646
128.84167
114.12652
99.411605
84.696518
69.981547
55.266499
40.551508
25.836481
11.121481
-3.5935315
-18.308537
-33.023532
-47.73855
-62.453512
-77.168563
-91.883468
-106.59858
-121.31342
-136.02865
146.06874
131.35392
116.63878
101.92385
87.20877
72.493794
57.778743
43.063759
28.348729
13.63373
-1.0812824
-15.796286
-30.51128
-45.226296
-59.941256
-74.656301
-89.37121
-104.08631
-118.80116
-133.51636
148.58931
133.87446
119.15935
104.44439
89.72932
75.014338
60.299291
45.5843
30.869274
16.154275
1.4392641
-13.275739
-27.990731
-42.705745
-57.420706
-72.135742
-86.85066
-101.56573
-116.28061
-130.99577
151.11323
136.39833
121.68325
106.96826
92.253203
77.538213
62.82317
48.108176
33.393151
18.678154
3.9631436
-10.751858
-25.46685
-40.181863
-54.896823
-69.611851
-84.32678
-99.041822
-113.75673
-128.47185
153.63842
138.92345
124.20841
109.49339
94.778344
80.063346
65.348307
50.633314
35.918286
21.20329
6.4882815
-8.2267199
-22.941711
-37.656721
-52.371685
-67.086704
-81.801645
-96.516647
-111.2316
-125.94664
156.16387
141.44874
126.73376
112.01869
97.303661
82.588656
67.873623
53.158628
38.443606
23.728609
9.0136014
-5.7013997
-20.416391
-35.1314
-49.846369
-64.561379
-79.276337
-93.991288
-108.7063
-123.42118
158.68852
143.97291
129.25802
114.5429
99.827912
85.112904
70.397884
55.682891
40.967874
26.252877
11.537871
-3.1771302
-17.892123
-32.607135
-47.322114
-62.037121
-76.752115
-91.467018
-106.18212
-120.89652
161.21198
146.49572
131.78095
117.06583
102.35088
87.635878
72.920872
58.20588
43.490868
28.775872
14.060867
-0.65413411
-15.369128
-30.084141
-44.79913
-59.514137
-74.229178
-88.944071
-103.65929
-118.37304
163.73877
149.02384
134.30887
119.59386
104.87879
90.163809
75.448761
60.733775
46.01875
31.303759
16.588753
1.873752
-12.841231
-27.556243
-42.271194
-56.98622
-71.701139
-86.416139
-101.13116
-115.84624
166.2683
151.55341
136.8383
122.12337
107.40827
92.693318
77.978263
63.263283
48.548257
33.833265
19.118261
4.4032593
-10.311721
-25.026739
-39.741683
-54.456731
-69.171625
-83.886708
-98.601581
-113.3167
168.79889
154.08397