/*--------------------------------*- C++ -*----------------------------------*\
| =========                 |                                                 |
| \\      /  F ield         | OpenFOAM: The Open Source CFD Toolbox           |
|  \\    /   O peration     | Version:  2406                                  |
|   \\  /    A nd           | Website:  www.openfoam.com                      |
|    \\/     M anipulation  |                                                 |
\*---------------------------------------------------------------------------*/
FoamFile
{
    version     2.0;
    format      ascii;
    arch        "LSB;label=32;scalar=64";
    class       volScalarField;
    location    "0.00456296/fluid";
    object      p_rgh;
}
// * * * * * * * * * * * * * * * * * * * * * * * * * * * * * * * * * * * * * //

dimensions      [1 -1 -2 0 0 0 0];

internalField   nonuniform List<scalar> 
53600
(
1.3839727
1.3843298
1.38415
1.3842615
1.3841802
1.3842364
1.3841905
1.3842142
1.3841892
1.3841932
1.3841808
1.3841696
1.3841737
1.3841372
1.3841764
1.3840944
1.384192
1.3840443
1.384238
1.3838715
3.9171666
3.9175949
3.917341
3.9175019
3.9173904
3.9174688
3.917411
3.9174454
3.9174163
3.9174244
3.9174122
3.9174007
3.9174097
3.9173653
3.9174191
3.9173141
3.9174456
3.9172463
3.9175202
3.9170752
6.4463206
6.4467705
6.4464879
6.4466695
6.446546
6.4466328
6.4465712
6.4466108
6.4465809
6.4465908
6.4465794
6.4465681
6.4465794
6.4465324
6.4465915
6.4464792
6.4466218
6.4464041
6.4467082
6.4462381
8.9749403
8.9753973
8.975101
8.9752932
8.9751634
8.9752551
8.975192
8.9752333
8.9752039
8.9752152
8.9752048
8.9751938
8.9752068
8.9751584
8.9752209
8.9751057
8.9752536
8.97503
8.9753423
8.9748652
11.504175
11.504638
11.504332
11.504532
11.504397
11.504493
11.504428
11.504471
11.504442
11.504454
11.504445
11.504434
11.504449
11.504399
11.504465
11.504347
11.5045
11.504274
11.504588
11.504108
14.034377
14.03485
14.034534
14.034744
14.0346
14.034701
14.034633
14.034679
14.034649
14.034663
14.034655
14.034644
14.03466
14.03461
14.034678
14.034558
14.034719
14.034487
14.034809
14.034321
16.565535
16.566002
16.565664
16.565885
16.565729
16.565837
16.565767
16.565816
16.565787
16.565802
16.565795
16.565784
16.565801
16.565749
16.565819
16.565696
16.565867
16.565628
16.565971
16.56549
19.097533
19.097973
19.097578
19.097818
19.097649
19.09777
19.097699
19.097752
19.097724
19.09774
19.097734
19.097723
19.09774
19.097685
19.097755
19.097624
19.097807
19.097552
19.097952
19.097499
21.630853
21.631321
21.630807
21.63109
21.630902
21.631045
21.630971
21.631028
21.631003
21.631019
21.631014
21.631002
21.631018
21.630961
21.631029
21.630886
21.631079
21.630787
21.63131
21.630827
24.165805
24.166095
24.165499
24.165806
24.165629
24.165778
24.165712
24.16577
24.165747
24.165765
24.165759
24.165748
24.165762
24.165707
24.165766
24.165623
24.165794
24.165484
24.1661
24.165794
26.699018
26.699393
26.699047
26.699229
26.699099
26.699203
26.699145
26.699194
26.699172
26.699188
26.699184
26.699175
26.699191
26.699146
26.699204
26.699096
26.699241
26.699051
26.699406
26.699025
29.232637
29.233049
29.232747
29.232932
29.232804
29.232902
29.232845
29.232891
29.232869
29.232884
29.232881
29.232873
29.232891
29.232849
29.232908
29.232809
29.232952
29.232764
29.233076
29.232656
31.766552
31.766973
31.766682
31.76687
31.766743
31.766839
31.766782
31.766827
31.766805
31.76682
31.766818
31.76681
31.766829
31.766789
31.76685
31.766755
31.766897
31.766709
31.767012
31.766585
34.300682
34.301103
34.300815
34.301003
34.300878
34.300972
34.300915
34.300959
34.300938
34.300953
34.300951
34.300944
34.300964
34.300925
34.300987
34.300895
34.301037
34.300852
34.301153
34.300726
36.834992
36.835412
36.835126
36.835313
36.835189
36.835281
36.835225
36.835269
36.835248
36.835263
36.835262
36.835255
36.835276
36.835238
36.8353
36.835208
36.835357
36.835172
36.835472
36.835049
39.369469
39.369888
39.369602
39.369788
39.369664
39.369756
39.3697
39.369744
39.369723
39.369738
39.369738
39.369731
39.369753
39.369716
39.369779
39.36969
39.369838
39.369656
39.369957
39.369535
41.904075
41.904493
41.904208
41.904393
41.904269
41.904361
41.904305
41.904348
41.904328
41.904343
41.904344
41.904337
41.90436
41.904323
41.904387
41.9043
41.904448
41.90427
41.90457
41.904152
44.438806
44.439223
44.438938
44.439122
44.438998
44.43909
44.439034
44.439078
44.439058
44.439072
44.439074
44.439067
44.439091
44.439056
44.43912
44.439038
44.43918
44.439007
44.439307
44.43889
46.973656
46.974072
46.973787
46.973971
46.973847
46.973939
46.973883
46.973927
46.973907
46.973922
46.973924
46.973917
46.973942
46.973907
46.973971
46.973892
46.974032
46.973863
46.974163
46.973749
49.508605
49.509021
49.508736
49.50892
49.508796
49.508888
49.508832
49.508876
49.508856
49.508871
49.508874
49.508867
49.508893
49.508858
49.508923
49.508846
49.508985
49.508819
49.509118
49.508705
52.043635
52.04405
52.043765
52.043949
52.043825
52.043917
52.043862
52.043905
52.043886
52.043901
52.043905
52.043898
52.043924
52.043889
52.043956
52.043879
52.044018
52.043855
52.044153
52.043742
54.578744
54.579159
54.578874
54.579058
54.578934
54.579027
54.578971
54.579015
54.578996
54.579011
54.579015
54.579008
54.579035
54.578998
54.57907
54.578992
54.579131
54.57897
54.579268
54.578857
57.113932
57.114346
57.114062
57.114246
57.114122
57.114214
57.114159
57.114203
57.114184
57.114199
57.114205
57.114197
57.114225
57.114189
57.114259
57.114183
57.114322
57.114163
57.11446
57.114052
59.649183
59.649597
59.649312
59.649496
59.649372
59.649465
59.649409
59.649453
59.649435
59.64945
59.649456
59.649448
59.649478
59.649443
59.64951
59.649436
59.649575
59.649418
59.649715
59.649307
62.184479
62.184892
62.184608
62.184792
62.184668
62.184761
62.184705
62.18475
62.184732
62.184746
62.184753
62.184744
62.184779
62.184741
62.18481
62.184732
62.184874
62.184718
62.185014
62.184608
64.719823
64.720236
64.719952
64.720136
64.720011
64.720105
64.720049
64.720094
64.720077
64.720091
64.720099
64.72009
64.720123
64.720086
64.720156
64.72008
64.72022
64.720066
64.720362
64.719956
67.255216
67.25563
67.255346
67.255529
67.255404
67.255499
67.255443
67.255488
67.255471
67.255485
67.255495
67.255484
67.255517
67.255482
67.255552
67.255475
67.255616
67.255464
67.255759
67.255354
69.790637
69.791051
69.790767
69.79095
69.790825
69.790921
69.790864
69.790909
69.790893
69.790907
69.790917
69.790908
69.790939
69.790906
69.790972
69.790902
69.791041
69.790888
69.791184
69.790779
72.326089
72.326503
72.326218
72.326402
72.326276
72.326373
72.326316
72.326361
72.326344
72.32636
72.326369
72.326361
72.326392
72.32636
72.326426
72.326357
72.326497
72.326341
72.326638
72.326234
74.861576
74.86199
74.861705
74.86189
74.861764
74.86186
74.861804
74.861849
74.861833
74.861848
74.861857
74.86185
74.86188
74.861849
74.861915
74.861846
74.861986
74.861831
74.862128
74.861725
77.397086
77.3975
77.397214
77.397401
77.397274
77.39737
77.397314
77.397359
77.397343
77.397358
77.397368
77.39736
77.397392
77.397361
77.397426
77.397358
77.397498
77.397344
77.39764
77.397238
79.932607
79.933022
79.932734
79.932924
79.932795
79.932892
79.932835
79.932881
79.932865
79.93288
79.93289
79.932883
79.932914
79.932884
79.932949
79.932882
79.933022
79.932867
79.933164
79.932761
82.468145
82.46856
82.468271
82.468462
82.468333
82.46843
82.468373
82.468419
82.468404
82.468418
82.468429
82.468421
82.468453
82.468423
82.468488
82.468422
82.468563
82.468405
82.468703
82.468302
85.003706
85.004121
85.003832
85.004023
85.003893
85.003991
85.003934
85.00398
85.003965
85.003979
85.00399
85.003982
85.004015
85.003985
85.00405
85.003984
85.004123
85.00397
85.004266
85.003865
87.539279
87.539693
87.539404
87.539596
87.539466
87.539563
87.539507
87.539553
87.539538
87.539552
87.539564
87.539556
87.539588
87.539558
87.539623
87.539559
87.539696
87.539546
87.53984
87.53944
90.074853
90.075268
90.074979
90.075171
90.07504
90.075139
90.075082
90.075128
90.075113
90.075127
90.075139
90.075131
90.075164
90.075134
90.075199
90.075135
90.075271
90.075123
90.075416
90.075017
92.610437
92.610851
92.610561
92.610754
92.610623
92.610722
92.610665
92.610711
92.610697
92.610711
92.610723
92.610715
92.610748
92.610718
92.610783
92.61072
92.610855
92.610708
92.611
92.610602
95.146036
95.146451
95.146161
95.146354
95.146223
95.146322
95.146265
95.146311
95.146296
95.14631
95.146323
95.146315
95.146348
95.146319
95.146383
95.146321
95.146455
95.14631
95.146601
95.146203
97.681642
97.682056
97.681765
97.681961
97.681828
97.681928
97.68187
97.681917
97.681902
97.681916
97.681929
97.68192
97.681954
97.681925
97.681989
97.681927
97.682061
97.681917
97.682207
97.681811
100.21724
100.21766
100.21737
100.21757
100.21743
100.21753
100.21747
100.21752
100.2175
100.21752
100.21753
100.21752
100.21756
100.21753
100.21759
100.21753
100.21766
100.21752
100.21781
100.21741
102.75285
102.75327
102.75297
102.75317
102.75304
102.75314
102.75308
102.75313
102.75311
102.75313
102.75314
102.75313
102.75316
102.75314
102.7532
102.75314
102.75327
102.75313
102.75342
102.75302
105.28847
105.28888
105.28859
105.28879
105.28866
105.28876
105.2887
105.28875
105.28873
105.28875
105.28876
105.28875
105.28878
105.28876
105.28882
105.28876
105.28889
105.28875
105.28904
105.28864
107.82409
107.8245
107.82421
107.82441
107.82427
107.82437
107.82431
107.82436
107.82435
107.82436
107.82437
107.82436
107.8244
107.82437
107.82443
107.82437
107.82451
107.82437
107.82465
107.82426
110.3597
110.36012
110.35982
110.36002
110.35989
110.35999
110.35993
110.35998
110.35996
110.35998
110.35999
110.35998
110.36002
110.35999
110.36005
110.35999
110.36012
110.35998
110.36027
110.35988
112.89533
112.89574
112.89545
112.89565
112.89552
112.89562
112.89556
112.8956
112.89559
112.8956
112.89562
112.89561
112.89564
112.89562
112.89568
112.89562
112.89575
112.89561
112.8959
112.89551
115.43096
115.43137
115.43108
115.43128
115.43115
115.43125
115.43119
115.43123
115.43122
115.43123
115.43125
115.43124
115.43127
115.43125
115.43131
115.43125
115.43138
115.43124
115.43153
115.43114
117.96658
117.96699
117.9667
117.9669
117.96677
117.96687
117.96681
117.96686
117.96684
117.96686
117.96687
117.96686
117.9669
117.96687
117.96693
117.96687
117.967
117.96687
117.96715
117.96676
120.50221
120.50262
120.50233
120.50253
120.50239
120.50249
120.50243
120.50248
120.50247
120.50248
120.5025
120.50249
120.50252
120.50249
120.50255
120.5025
120.50263
120.50249
120.50277
120.50238
123.03784
123.03825
123.03796
123.03816
123.03802
123.03813
123.03807
123.03811
123.0381
123.03811
123.03813
123.03812
123.03815
123.03813
123.03819
123.03813
123.03826
123.03812
123.03841
123.03802
125.57347
125.57389
125.5736
125.57379
125.57366
125.57376
125.5737
125.57375
125.57374
125.57375
125.57376
125.57375
125.57379
125.57376
125.57382
125.57377
125.57389
125.57376
125.57404
125.57365
128.1091
128.10951
128.10922
128.10942
128.10928
128.10939
128.10933
128.10938
128.10936
128.10937
128.10939
128.10938
128.10942
128.10939
128.10945
128.10939
128.10952
128.10939
128.10967
128.10928
130.64473
130.64514
130.64485
130.64505
130.64491
130.64501
130.64495
130.645
130.64499
130.645
130.64502
130.64501
130.64504
130.64501
130.64508
130.64502
130.64515
130.64501
130.64529
130.64491
133.18036
133.18077
133.18048
133.18068
133.18055
133.18065
133.18059
133.18064
133.18062
133.18064
133.18065
133.18064
133.18068
133.18065
133.18071
133.18066
133.18078
133.18065
133.18093
133.18054
135.71599
135.7164
135.71611
135.71631
135.71617
135.71628
135.71622
135.71627
135.71625
135.71626
135.71628
135.71627
135.71631
135.71628
135.71634
135.71628
135.71641
135.71628
135.71656
135.71617
138.25162
138.25203
138.25174
138.25194
138.2518
138.2519
138.25184
138.25189
138.25188
138.25189
138.25191
138.2519
138.25193
138.2519
138.25197
138.25191
138.25204
138.2519
138.25218
138.2518
140.78725
140.78766
140.78737
140.78757
140.78744
140.78754
140.78748
140.78753
140.78752
140.78753
140.78754
140.78753
140.78757
140.78754
140.7876
140.78755
140.78767
140.78754
140.78782
140.78744
143.32289
143.3233
143.32301
143.32321
143.32307
143.32317
143.32312
143.32316
143.32315
143.32316
143.32318
143.32317
143.32321
143.32318
143.32324
143.32318
143.32331
143.32318
143.32346
143.32307
145.85851
145.85892
145.85864
145.85883
145.8587
145.8588
145.85874
145.85879
145.85878
145.85879
145.85881
145.8588
145.85883
145.8588
145.85887
145.85881
145.85894
145.8588
145.85908
145.8587
148.39414
148.39455
148.39426
148.39446
148.39432
148.39443
148.39437
148.39442
148.3944
148.39442
148.39443
148.39442
148.39446
148.39443
148.39449
148.39444
148.39456
148.39443
148.39471
148.39433
150.92977
150.93018
150.92989
150.93009
150.92996
150.93006
150.93
150.93005
150.93004
150.93005
150.93007
150.93006
150.93009
150.93006
150.93013
150.93007
150.9302
150.93007
150.93034
150.92996
153.4654
153.46581
153.46552
153.46572
153.46558
153.46571
153.46563
153.46568
153.46567
153.46568
153.4657
153.46569
153.46573
153.4657
153.46576
153.46571
153.46583
153.4657
153.46598
153.4656
156.00103
156.00144
156.00114
156.00135
156.00121
156.00132
156.00126
156.00131
156.0013
156.00131
156.00133
156.00131
156.00135
156.00132
156.00138
156.00133
156.00146
156.00132
156.0016
156.00122
158.53664
158.53705
158.53676
158.53698
158.53684
158.53693
158.53688
158.53693
158.53692
158.53693
158.53695
158.53693
158.53697
158.53694
158.53701
158.53695
158.53708
158.53694
158.53722
158.53685
161.07227
161.07268
161.07239
161.0726
161.07246
161.07256
161.07251
161.07255
161.07255
161.07256
161.07258
161.07256
161.0726
161.07257
161.07264
161.07258
161.07271
161.07257
161.07285
161.07247
163.60789
163.60831
163.60802
163.60822
163.60808
163.60818
163.60813
163.60818
163.60817
163.60818
163.6082
163.60819
163.60823
163.6082
163.60826
163.60821
163.60833
163.6082
163.60848
163.6081
166.14351
166.14392
166.14364
166.14383
166.14369
166.1438
166.14375
166.14379
166.14379
166.1438
166.14382
166.14381
166.14385
166.14382
166.14388
166.14383
166.14395
166.14382
166.14409
166.14371
168.67911
168.67952
168.67924
168.67942
168.67931
168.67941
168.67936
168.6794
168.6794
168.67941
168.67943
168.67942
168.67946
168.67943
168.6795
168.67943
168.67957
168.67942
168.6797
168.67932
171.21472
171.21512
171.21485
171.21503
171.21492
171.21502
171.21497
171.21502
171.21502
171.21503
171.21505
171.21504
171.21508
171.21504
171.2151
171.21505
171.21518
171.21504
171.21531
171.21493
173.75032
173.75072
173.75045
173.75063
173.75053
173.75062
173.75058
173.75062
173.75062
173.75063
173.75066
173.75064
173.75068
173.75066
173.75071
173.75066
173.75077
173.75065
173.75092
173.75054
176.28591
176.28635
176.28601
176.28622
176.28612
176.28621
176.28618
176.28622
176.28623
176.28624
176.28626
176.28625
176.28628
176.28626
176.28631
176.28627
176.28636
176.28625
176.28651
176.28613
178.82148
178.82189
178.82163
178.82181
178.82171
178.8218
178.82178
178.82181
178.82182
178.82183
178.82186
178.82184
178.82187
178.82186
178.82189
178.82186
178.82194
178.82181
178.82213
178.82173
181.35705
181.35744
181.35721
181.35738
181.3573
181.35738
181.35736
181.3574
181.35741
181.35742
181.35745
181.35744
181.35746
181.35745
181.35748
181.35745
181.35753
181.35743
181.35767
181.35729
183.8926
183.89299
183.89277
183.89293
183.89287
183.89294
183.89294
183.89297
183.893
183.893
183.89303
183.89302
183.89304
183.89303
183.89305
183.89303
183.89309
183.893
183.89322
183.89285
186.42813
186.42852
186.42832
186.42847
186.42843
186.42849
186.42851
186.42853
186.42857
186.42857
186.4286
186.4286
186.4286
186.4286
186.4286
186.42859
186.42863
186.42856
186.42876
186.4284
188.96365
188.96403
188.96385
188.96399
188.96398
188.96403
188.96407
188.96408
188.96413
188.96413
188.96416
188.96416
188.96415
188.96417
188.96414
188.96415
188.96416
188.9641
188.96428
188.96392
191.49914
191.49952
191.49937
191.49949
191.49951
191.49954
191.49962
191.49961
191.49968
191.49968
191.4997
191.49971
191.49969
191.49972
191.49966
191.49969
191.49967
191.49962
191.49977
191.49943
194.03461
194.03497
194.03486
194.03496
194.03503
194.03504
194.03515
194.03513
194.03522
194.03521
194.03524
194.03526
194.03521
194.03526
194.03516
194.03522
194.03514
194.03513
194.03524
194.0349
196.57005
196.5704
196.57034
196.57041
196.57055
196.57051
196.57068
196.57063
196.57075
196.57073
196.57076
196.57079
196.57071
196.57079
196.57064
196.57074
196.5706
196.57062
196.57067
196.57036
199.10547
199.1058
199.10581
199.10583
199.10605
199.10596
199.10621
199.10612
199.10629
199.10625
199.10628
199.10632
199.10621
199.10633
199.1061
199.10625
199.10603
199.1061
199.10608
199.10579
201.64087
201.64117
201.64128
201.64124
201.64158
201.64142
201.64176
201.64162
201.64184
201.64179
201.64182
201.64188
201.64171
201.64188
201.64156
201.64178
201.64144
201.64158
201.64147
201.64121
204.17627
204.17653
204.17676
204.17663
204.17712
204.17687
204.17734
204.17713
204.17742
204.17734
204.17737
204.17746
204.17722
204.17746
204.17701
204.17734
204.17685
204.17708
204.17685
204.17663
206.7118
206.71203
206.7124
206.71216
206.71284
206.71246
206.71309
206.7128
206.71317
206.71306
206.7131
206.71321
206.71289
206.71322
206.71262
206.71306
206.71239
206.71273
206.71236
206.71217
209.24751
209.24775
209.24831
209.24792
209.24885
209.24831
209.24914
209.24872
209.24921
209.24906
209.24909
209.24925
209.24883
209.24927
209.24847
209.24908
209.24816
209.24865
209.24809
209.2479
211.78181
211.78113
211.78252
211.78167
211.783
211.78218
211.78328
211.7827
211.78332
211.78312
211.78315
211.78336
211.78279
211.7834
211.78232
211.78321
211.78189
211.78282
211.78143
211.78213
214.31498
214.31433
214.31562
214.3147
214.31637
214.31533
214.31675
214.31599
214.31679
214.31652
214.31656
214.31684
214.3161
214.31689
214.3155
214.31661
214.31494
214.31597
214.31467
214.31537
216.84777
216.84744
216.84911
216.8479
216.85003
216.84865
216.85046
216.84946
216.85047
216.85012
216.85016
216.85052
216.84957
216.8506
216.84883
216.85029
216.84816
216.84948
216.84782
216.84819
219.38103
219.38047
219.38269
219.38107
219.38382
219.38199
219.3843
219.38299
219.38426
219.38381
219.38384
219.38431
219.38311
219.38444
219.38218
219.38408
219.38135
219.38308
219.38087
219.38148
221.91438
221.91359
221.91646
221.91431
221.91781
221.91543
221.91834
221.91665
221.91824
221.91765
221.91769
221.91829
221.91676
221.91849
221.91562
221.91807
221.9146
221.91685
221.914
221.91484
224.44824
224.44711
224.45077
224.44797
224.45238
224.44931
224.45295
224.45079
224.45277
224.45202
224.45206
224.45282
224.45091
224.4531
224.4495
224.45265
224.44826
224.45118
224.44752
224.44871
226.98262
226.98107
226.9857
226.98208
226.98759
226.98367
226.9882
226.98546
226.9879
226.98696
226.987
226.98796
226.98558
226.98835
226.98387
226.98787
226.98237
226.98611
226.98149
226.98309
229.51752
229.51545
229.52125
229.51661
229.52346
229.5185
229.52409
229.52065
229.52364
229.52246
229.5225
229.52369
229.52077
229.52424
229.5187
229.52374
229.5169
229.52165
229.51587
229.51799
232.05291
232.0502
232.05738
232.05151
232.05996
232.05374
232.06058
232.0563
232.05994
232.05848
232.05852
232.05999
232.05642
232.06074
232.05394
232.06023
232.05181
232.05779
232.05062
232.05338
234.58879
234.58532
234.59412
234.58677
234.59709
234.58936
234.59768
234.5924
234.59679
234.595
234.59503
234.59684
234.59252
234.59783
234.58956
234.59736
234.58706
234.59453
234.58573
234.58926
237.12518
237.1208
237.13149
237.12235
237.13487
237.12534
237.13538
237.12893
237.13418
237.13201
237.13205
237.13424
237.12905
237.13553
237.12554
237.13515
237.12264
237.13189
237.12121
237.12564
239.66213
239.65667
239.66953
239.65828
239.67335
239.66171
239.67372
239.6659
239.67214
239.66952
239.66956
239.67219
239.66603
239.67387
239.66191
239.67362
239.65857
239.66993
239.65707
239.66259
242.19969
242.19297
242.20831
242.19457
242.21257
242.19847
242.21272
242.20334
242.21069
242.20756
242.2076
242.21074
242.20346
242.21287
242.19866
242.21284
242.19486
242.2087
242.19337
242.20015
244.73795
244.72977
244.74789
244.73126
244.75259
244.73564
244.75243
244.74127
244.74985
244.74616
244.7462
244.7499
244.74139
244.75258
244.73584
244.75285
244.73154
244.74828
244.73016
244.73839
247.27699
247.26713
247.28836
247.2684
247.29347
247.27329
247.29289
247.27974
247.28966
247.28535
247.28539
247.28971
247.27986
247.29304
247.27348
247.29372
247.26867
247.28874
247.26751
247.27742
249.81689
249.80513
249.8298
249.80603
249.83527
249.81144
249.83415
249.81879
249.83017
249.82518
249.82522
249.83022
249.81891
249.83429
249.81163
249.83552
249.8063
249.83017
249.8055
249.81731
252.35777
252.34387
252.3723
252.34421
252.37806
252.35017
252.37624
252.35848
252.3714
252.36568
252.36572
252.37145
252.35859
252.37638
252.35035
252.37831
252.34447
252.37266
252.34422
252.35817
254.8997
254.88342
254.91593
254.88301
254.9219
254.88951
254.91921
254.89885
254.91339
254.9069
254.90694
254.91344
254.89896
254.91934
254.88968
254.92214
254.88326
254.91628
254.88375
254.90008
257.44276
257.42385
257.46075
257.42248
257.46681
257.42953
257.46306
257.43995
257.45616
257.44887
257.44891
257.4562
257.44005
257.46319
257.4297
257.46704
257.42272
257.46109
257.42417
257.44313
259.98702
259.96523
260.00682
259.96266
260.01282
259.97027
260.00781
259.98182
259.9997
259.99161
259.99165
259.99974
259.98192
260.00794
259.97043
260.01305
259.96289
260.00715
259.96553
259.98737
262.53251
262.5076
262.55416
262.5036
262.55994
262.51178
262.55344
262.52449
262.54402
262.53513
262.53517
262.54406
262.5246
262.55356
262.51194
262.56016
262.50381
262.55448
262.50788
262.53285
265.07925
265.05097
265.10279
265.04531
265.10814
265.05409
265.09991
265.06799
265.08908
265.07942
265.07946
265.08912
265.06809
265.10003
265.05424
265.10836
265.04552
265.1031
265.05124
265.07958
267.62725
267.59536
267.6527
267.58783
267.6574
267.59722
267.64717
267.61231
267.63484
267.62447
267.6245
267.63488
267.6124
267.64728
267.59736
267.6576
267.58802
267.653
267.59561
267.62756
270.1765
270.14075
270.20389
270.13117
270.20766
270.14121
270.19517
270.15746
270.18126
270.17024
270.17027
270.18129
270.15755
270.19528
270.14134
270.20786
270.13135
270.20417
270.14099
270.17679
272.72699
272.68714
272.75634
272.67534
272.75889
272.68607
272.74384
272.70343
272.72826
272.71669
272.71672
272.7283
272.70352
272.74394
272.68619
272.75908
272.67551
272.75661
272.68737
272.72727
275.27872
275.23452
275.31006
275.2204
275.31105
275.23184
275.29311
275.25022
275.2758
275.26377
275.2638
275.27583
275.2503
275.2932
275.23195
275.31123
275.22056
275.31033
275.23474
275.27899
277.83176
277.78294
277.86511
277.76639
277.86411
277.77855
277.84292
277.7978
277.82379
277.81144
277.81146
277.82382
277.79788
277.84301
277.77867
277.86428
277.76654
277.86536
277.78315
277.83202
280.38622
280.33247
280.42157
280.31341
280.41809
280.3263
280.39323
280.34619
280.37219
280.35964
280.35966
280.37222
280.34627
280.39332
280.32641
280.41826
280.31355
280.42181
280.33267
280.38646
282.94229
282.88327
282.97962
282.86162
282.97307
282.87517
282.94405
282.89539
282.92095
282.90832
282.90834
282.92098
282.89546
282.94413
282.87527
282.97323
282.86176
282.97985
282.88346
282.94252
285.50029
285.4356
285.53955
285.41126
285.52916
285.42531
285.49538
285.44541
285.47005
285.45744
285.45746
285.47007
285.44548
285.49546
285.4254
285.52931
285.41139
285.53977
285.43578
285.50051
288.06072
287.98986
288.10179
287.96266
288.08662
287.97694
288.04731
287.99631
288.01947
288.00697
288.00699
288.01949
287.99637
288.04739
287.97703
288.08676
287.96278
288.10199
287.99003
288.06093
290.62431
290.54665
290.66696
290.51633
290.64579
290.53037
290.59999
290.54817
290.56924
290.55688
290.5569
290.56926
290.54822
290.60006
290.53046
290.64592
290.51644
290.66715
290.54681
290.62451
293.19207
293.10682
293.23595
293.07295
293.20719
293.08603
293.15366
293.10111
293.11941
293.10718
293.10719
293.11944
293.10116
293.15373
293.08611
293.20731
293.07306
293.23613
293.10697
293.19225
295.76543
295.67158
295.80999
295.6335
295.77157
295.6445
295.70869
295.65534
295.67011
295.65789
295.6579
295.67014
295.65539
295.70875
295.64458
295.77168
295.6336
295.81015
295.67172
295.7656
298.34634
298.24258
298.39074
298.1993
298.33994
298.20661
298.26556
298.21114
298.22151
298.20908
298.20909
298.22154
298.21119
298.26562
298.20668
298.34004
298.1994
298.39089
298.24271
298.34649
300.93745
300.8221
300.98047
300.77218
300.91368
300.77345
300.82502
300.76892
300.77387
300.76088
300.76089
300.77389
300.76896
300.82507
300.77352
300.91378
300.77227
300.98061
300.82222
300.93759
303.54247
303.4133
303.5823
303.35467
303.49475
303.34655
303.38808
303.3293
303.3276
303.31352
303.31353
303.32762
303.32934
303.38813
303.34662
303.49483
303.35476
303.58242
303.41341
303.5426
306.16661
306.02065
306.20055
305.95034
306.08582
305.92806
305.95624
305.89323
305.88341
305.86749
305.8675
305.88343
305.89327
305.95628
305.92812
306.0859
305.95042
306.20066
306.02076
306.16673
308.81714
308.65037
308.84109
308.56402
308.69056
308.5209
308.5316
308.46214
308.44237
308.42362
308.42363
308.44239
308.46217
308.53164
308.52096
308.69063
308.5641
308.84119
308.65046
308.81725
311.50364
311.31049
311.51144
311.20195
311.31363
311.12881
311.11691
311.03789
311.00593
310.98302
310.98302
311.00594
311.03792
311.11695
311.12886
311.31369
311.20202
311.51153
311.31058
311.50374
314.238
314.01096
314.22094
313.87202
313.96089
313.75638
313.71546
313.6226
313.57557
313.5468
313.5468
313.57559
313.62263
313.7155
313.75643
313.96095
313.87208
314.22103
314.01104
314.23809
317.03703
316.76604
316.98321
316.58595
316.641
316.41024
316.33203
316.21951
316.15377
316.11697
316.11698
316.15378
316.21953
316.33207
316.41028
316.64105
316.58602
316.98329
316.76612
317.03711
319.93295
319.60336
319.82327
319.36496
319.37006
319.10331
318.9773
318.83753
318.74863
318.70125
318.70125
318.74864
318.83755
318.97734
319.10335
319.37011
319.36502
319.82334
319.60343
319.93302
322.9888
322.57467
322.78392
322.24431
322.1764
321.86052
321.6744
321.49834
321.3812
321.32037
321.32038
321.38122
321.49837
321.67443
321.86056
322.17645
322.24436
322.78399
322.57474
322.98887
326.28423
325.73825
325.90817
325.2595
325.09053
324.71105
324.45201
324.22949
324.07835
324.00089
324.00089
324.07837
324.22951
324.45204
324.71109
325.09058
325.25955
325.90823
325.73831
326.28429
329.8208
329.0809
329.1825
328.40233
328.10409
327.64548
327.29936
327.01791
326.82556
326.72768
326.72769
326.82558
327.01793
327.29939
327.64552
328.10413
328.40238
329.18256
329.08096
329.82086
333.4431
332.48375
332.53197
331.61339
331.14713
330.58114
330.12642
329.76905
329.52623
329.4036
329.4036
329.52624
329.76906
330.12645
330.58117
331.14717
331.61343
332.53203
332.4838
333.44316
337.27035
336.11168
336.12434
335.02025
334.29572
333.56241
332.9673
332.51519
332.21338
332.06265
332.06266
332.21339
332.51521
332.96732
333.56244
334.29576
335.02029
336.12439
336.11174
337.2704
343.123
341.39498
341.03372
339.53578
338.40366
337.43028
336.67227
336.11855
335.75734
335.5792
335.5792
335.75735
336.11857
336.67229
337.43031
338.4037
339.53582
341.03377
341.39503
343.12306
355.08327
350.87238
349.06285
346.89554
345.29845
344.08566
343.18914
342.55474
342.14828
341.94969
341.9497
342.14829
342.55476
343.18917
344.08569
345.29848
346.89558
349.0629
350.87243
355.08332
372.43821
362.82679
358.92359
356.23722
354.38886
353.05771
352.09699
351.42622
350.99967
350.79207
350.79208
350.99968
351.42624
352.09701
353.05773
354.38889
356.23726
358.92363
362.82684
372.43825
1.27277
1.2730141
1.2728742
1.2729565
1.2728794
1.2729063
1.2728655
1.2728716
1.272848
1.2728465
1.2728333
1.2728265
1.2728269
1.272808
1.2728366
1.2727894
1.2728695
1.272761
1.2729126
1.272657
3.7639559
3.76417
3.7640211
3.7641047
3.7640181
3.7640471
3.763999
3.7640082
3.7639809
3.7639815
3.7639685
3.7639635
3.7639681
3.7639497
3.7639882
3.763937
3.7640318
3.7639193
3.7640837
3.7638528
6.2762378
6.2764186
6.2762844
6.2763519
6.2762705
6.2762941
6.2762432
6.276259
6.276229
6.2762297
6.2762176
6.2762139
6.2762204
6.2762041
6.2762436
6.2761995
6.2762902
6.2761941
6.276344
6.2761435
8.7968133
8.7969603
8.7968473
8.7968924
8.7968202
8.7968375
8.7967914
8.7967998
8.7967736
8.7967751
8.7967641
8.7967613
8.7967689
8.7967547
8.7967939
8.7967581
8.7968402
8.7967679
8.7968945
8.796727
11.320731
11.320831
11.320747
11.320764
11.320703
11.320713
11.32067
11.320676
11.320651
11.320654
11.320644
11.320642
11.32065
11.320637
11.320677
11.320649
11.32072
11.320678
11.320774
11.320654
13.845924
13.845952
13.845912
13.845891
13.845844
13.845846
13.845807
13.845814
13.845786
13.84579
13.845782
13.84578
13.845789
13.845779
13.845815
13.845796
13.845855
13.845853
13.845904
13.845858
16.37137
16.371237
16.371261
16.371191
16.371161
16.371156
16.371123
16.371128
16.371106
16.371109
16.371101
16.3711
16.371109
16.3711
16.371131
16.371121
16.371163
16.371212
16.3712
16.371316
18.896019
18.895406
18.895518
18.895402
18.895412
18.895404
18.895384
18.895391
18.895374
18.895377
18.895371
18.89537
18.895377
18.895365
18.895386
18.895379
18.895385
18.895482
18.895382
18.895979
21.419478
21.418217
21.41845
21.418326
21.418384
21.418378
21.418372
21.41838
21.418368
21.418372
21.418367
21.418366
21.418372
21.418359
21.41837
21.418363
21.418322
21.418429
21.41821
21.419456
23.946271
23.946336
23.94637
23.94636
23.94629
23.946309
23.946261
23.946275
23.94625
23.946259
23.946253
23.946252
23.946269
23.946257
23.946306
23.94628
23.946361
23.946361
23.946341
23.946261
26.475798
26.475908
26.475795
26.475869
26.475775
26.475818
26.475763
26.475783
26.475757
26.475765
26.475761
26.475759
26.475779
26.475761
26.475817
26.475769
26.475875
26.475792
26.475919
26.475797
29.006386
29.00647
29.006343
29.006415
29.006317
29.00636
29.006303
29.006324
29.006299
29.006306
29.006303
29.006302
29.006322
29.006305
29.006363
29.006318
29.006429
29.006352
29.006493
29.006398
31.537732
31.537808
31.537677
31.537749
31.53765
31.537694
31.537637
31.537658
31.537633
31.537641
31.537638
31.537637
31.537659
31.537642
31.537702
31.537658
31.537772
31.537698
31.537843
31.537759
34.069751
34.069825