/*--------------------------------*- C++ -*----------------------------------*\
| =========                 |                                                 |
| \\      /  F ield         | OpenFOAM: The Open Source CFD Toolbox           |
|  \\    /   O peration     | Version:  2406                                  |
|   \\  /    A nd           | Website:  www.openfoam.com                      |
|    \\/     M anipulation  |                                                 |
\*---------------------------------------------------------------------------*/
FoamFile
{
    version     2.0;
    format      ascii;
    arch        "LSB;label=32;scalar=64";
    class       surfaceScalarField;
    location    "0.00456296/fluid";
    object      phi;
}
// * * * * * * * * * * * * * * * * * * * * * * * * * * * * * * * * * * * * * //

dimensions      [1 0 -1 0 0 0 0];

oriented        oriented;

internalField   nonuniform List<scalar> 
155040
(
4.940186e-10
-0.022342843
-7.1589291e-08
-2.1548489e-10
-0.022430134
-7.0308388e-08
7.3751872e-11
-0.022430221
-7.1255674e-08
-1.3726448e-10
-0.022430221
-7.0785771e-08
-9.8252901e-11
-0.022430221
-7.1011185e-08
-1.8809654e-10
-0.022430221
-7.0896426e-08
-2.0873151e-10
-0.022430221
-7.0950333e-08
-2.5961222e-10
-0.022430221
-7.0924117e-08
-2.8788305e-10
-0.022430221
-7.0936852e-08
-3.1781386e-10
-0.022430221
-7.0933197e-08
-3.3894817e-10
-0.022430221
-7.0935017e-08
-3.4779239e-10
-0.022430221
-7.0941086e-08
-3.6192581e-10
-0.022430221
-7.0933093e-08
-3.3562421e-10
-0.02243022
-7.0960325e-08
-3.6207843e-10
-0.02243022
-7.091537e-08
-2.5101854e-10
-0.02243022
-7.1026437e-08
-3.7720833e-10
-0.02243022
-7.0815148e-08
1.2901205e-11
-0.02243022
-7.1285611e-08
-6.0360485e-10
-0.022430133
-7.0334494e-08
-0.022342843
-7.1629821e-08
4.703787e-10
-0.022342786
-5.7697892e-08
-1.9598313e-10
-0.022430077
-5.649356e-08
7.8338884e-11
-0.022430164
-5.7416392e-08
-1.1760457e-10
-0.022430164
-5.6955054e-08
-8.143292e-11
-0.022430164
-5.7177762e-08
-1.6177867e-10
-0.022430164
-5.7063207e-08
-1.8205367e-10
-0.022430164
-5.711706e-08
-2.2697628e-10
-0.022430164
-5.7090683e-08
-2.5395489e-10
-0.022430164
-5.7103248e-08
-2.8103753e-10
-0.022430163
-5.709944e-08
-3.011733e-10
-0.022430163
-5.7101212e-08
-3.1043499e-10
-0.022430163
-5.7107181e-08
-3.2328967e-10
-0.022430163
-5.7099289e-08
-3.0266808e-10
-0.022430163
-5.7126256e-08
-3.2514441e-10
-0.022430163
-5.708199e-08
-2.2782136e-10
-0.022430163
-5.7191627e-08
-3.4428781e-10
-0.022430163
-5.6982843e-08
1.8205345e-11
-0.022430163
-5.7445329e-08
-5.6615007e-10
-0.022430076
-5.6517093e-08
-0.022342786
-5.7735506e-08
4.5363727e-10
-0.022342738
-4.8497815e-08
-1.8640906e-10
-0.022430029
-4.7353176e-08
8.3611862e-11
-0.022430116
-4.8257538e-08
-1.0345591e-10
-0.022430116
-4.7802257e-08
-6.5173689e-11
-0.022430116
-4.802317e-08
-1.4035772e-10
-0.022430116
-4.7908574e-08
-1.579326e-10
-0.022430116
-4.7962373e-08
-1.9910415e-10
-0.022430116
-4.7936331e-08
-2.2392239e-10
-0.022430116
-4.7948619e-08
-2.4901389e-10
-0.022430116
-4.7944693e-08
-2.6809461e-10
-0.022430116
-4.7946424e-08
-2.7725556e-10
-0.022430115
-4.7952229e-08
-2.9014479e-10
-0.022430115
-4.7944453e-08
-2.720705e-10
-0.022430115
-4.7970923e-08
-2.9500469e-10
-0.022430115
-4.7927242e-08
-2.0367916e-10
-0.022430115
-4.8035848e-08
-3.1928539e-10
-0.022430115
-4.7828711e-08
2.9218912e-11
-0.022430115
-4.828538e-08
-5.3839924e-10
-0.022430028
-4.7374949e-08
-0.022342738
-4.8533185e-08
4.3966058e-10
-0.022342697
-4.1448816e-08
-1.8101997e-10
-0.022429988
-4.0354833e-08
8.8065361e-11
-0.022430075
-4.1242831e-08
-9.2459309e-11
-0.022430075
-4.0793145e-08
-5.0907336e-11
-0.022430075
-4.1012291e-08
-1.2232841e-10
-0.022430075
-4.089775e-08
-1.3662532e-10
-0.022430075
-4.095189e-08
-1.7500194e-10
-0.022430075
-4.0925292e-08
-1.9759826e-10
-0.022430075
-4.0937718e-08
-2.2096281e-10
-0.022430075
-4.0933759e-08
-2.3898178e-10
-0.022430075
-4.0935449e-08
-2.4789041e-10
-0.022430075
-4.0941059e-08
-2.6093043e-10
-0.022430074
-4.0933404e-08
-2.4453658e-10
-0.022430074
-4.0959193e-08
-2.6873334e-10
-0.022430074
-4.0916136e-08
-1.8105343e-10
-0.022430074
-4.1023858e-08
-2.9767939e-10
-0.022430074
-4.0818237e-08
4.1072079e-11
-0.022430074
-4.1268904e-08
-5.1509972e-10
-0.022429987
-4.0375543e-08
-0.022342697
-4.1481848e-08
4.2620247e-10
-0.022342662
-3.5705627e-08
-1.7769595e-10
-0.022429952
-3.4656291e-08
9.1274861e-11
-0.022430039
-3.5528037e-08
-8.3647162e-11
-0.022430039
-3.5084457e-08
-3.8779062e-11
-0.022430039
-3.5301403e-08
-1.0696535e-10
-0.022430039
-3.5187222e-08
-1.1819081e-10
-0.022430039
-3.5241387e-08
-1.54002e-10
-0.022430039
-3.5214725e-08
-1.7455113e-10
-0.022430039
-3.5227028e-08
-1.9631408e-10
-0.022430039
-3.5223087e-08
-2.1326893e-10
-0.022430039
-3.5224732e-08
-2.2184219e-10
-0.022430039
-3.5230123e-08
-2.3488046e-10
-0.022430039
-3.5222632e-08
-2.1978315e-10
-0.022430039
-3.5247637e-08
-2.4515163e-10
-0.022430039
-3.5205264e-08
-1.6029646e-10
-0.022430039
-3.5311803e-08
-2.7822186e-10
-0.022430039
-3.5108138e-08
5.157314e-11
-0.022430039
-3.5552064e-08
-4.9379246e-10
-0.022429952
-3.4676186e-08
-0.022342661
-3.5736584e-08
4.1335659e-10
-0.022342631
-3.090335e-08
-1.7507378e-10
-0.022429922
-2.9895e-08
9.3310547e-11
-0.022430009
-3.0749419e-08
-7.6440223e-11
-0.022430009
-3.0313306e-08
-2.8652196e-11
-0.022430009
-3.0527134e-08
-9.3875296e-11
-0.022430009
-3.0413883e-08
-1.0235336e-10
-0.022430009
-3.0467762e-08
-1.3569038e-10
-0.022430009
-3.0441386e-08
-1.5437874e-10
-0.022430009
-3.0453241e-08
-1.745957e-10
-0.022430009
-3.0449447e-08
-1.9047571e-10
-0.022430009
-3.0451061e-08
-1.9864827e-10
-0.022430009
-3.045621e-08
-2.1145328e-10
-0.022430009
-3.0448988e-08
-1.9737321e-10
-0.022430009
-3.0473115e-08
-2.2356462e-10
-0.022430009
-3.0431465e-08
-1.4139584e-10
-0.022430009
-3.0536212e-08
-2.5992082e-10
-0.022430009
-3.033562e-08
6.2011572e-11
-0.022430009
-3.0771312e-08
-4.7385108e-10
-0.022429922
-2.9914043e-08
-0.022342631
-3.0931988e-08
4.0327251e-10
-0.022342605
-2.6846644e-08
-1.7223303e-10
-0.022429895
-2.5874759e-08
9.4302773e-11
-0.022429982
-2.6710031e-08
-7.0660247e-11
-0.022429982
-2.6283607e-08
-2.0391116e-11
-0.022429982
-2.649306e-08
-8.2780934e-11
-0.022429982
-2.6381576e-08
-8.8780008e-11
-0.022429982
-2.643476e-08
-1.1985993e-10
-0.022429982
-2.6408704e-08
-1.366711e-10
-0.022429982
-2.64206e-08
-1.5539962e-10
-0.022429982
-2.641675e-08
-1.7020239e-10
-0.022429982
-2.6418288e-08
-1.7790418e-10
-0.022429982
-2.642317e-08
-1.9022637e-10
-0.022429982
-2.6416309e-08
-1.769228e-10
-0.022429982
-2.6439373e-08
-2.0345509e-10
-0.022429982
-2.6398618e-08
-1.2390389e-10
-0.022429982
-2.6500746e-08
-2.4258656e-10
-0.022429982
-2.6304551e-08
7.1102084e-11
-0.022429982
-2.6729915e-08
-4.5730992e-10
-0.022429895
-2.5892632e-08
-0.022342605
-2.6873049e-08
3.9540421e-10
-0.022342582
-2.3378266e-08
-1.6883795e-10
-0.022429872
-2.2429224e-08
9.3233049e-11
-0.022429959
-2.3241692e-08
-6.6062602e-11
-0.022429959
-2.2828983e-08
-1.3887023e-11
-0.022429959
-2.3032894e-08
-7.3266146e-11
-0.022429959
-2.2924397e-08
-7.717266e-11
-0.022429959
-2.2976553e-08
-1.0599437e-10
-0.022429959
-2.2951295e-08
-1.2111515e-10
-0.022429959
-2.2962958e-08
-1.3839705e-10
-0.022429959
-2.2959215e-08
-1.521313e-10
-0.022429959
-2.2960674e-08
-1.5932244e-10
-0.022429959
-2.2965269e-08
-1.7095917e-10
-0.022429959
-2.2958752e-08
-1.5827984e-10
-0.022429959
-2.2980556e-08
-1.8437871e-10
-0.022429959
-2.2940933e-08
-1.0767842e-10
-0.022429959
-2.3039245e-08
-2.2507917e-10
-0.022429959
-2.2848654e-08
7.8346887e-11
-0.022429959
-2.3259545e-08
-4.4378421e-10
-0.022429872
-2.2446022e-08
-0.022342582
-2.340233e-08
3.8422362e-10
-0.022342562
-2.0402475e-08
-1.6345858e-10
-0.022429852
-1.9484461e-08
8.8311813e-11
-0.022429939
-2.0266244e-08
-6.1721681e-11
-0.022429939
-1.9874497e-08
-9.0163435e-12
-0.022429939
-2.0069556e-08
-6.4641229e-11
-0.022429939
-1.9965923e-08
-6.7206431e-11
-0.022429939
-2.0015888e-08
-9.3698894e-11
-0.022429939
-1.9991873e-08
-1.0741074e-10
-0.022429939
-2.0002992e-08
-1.2331603e-10
-0.022429939
-1.9999471e-08
-1.3604743e-10
-0.022429939
-2.0000805e-08
-1.4279996e-10
-0.022429939
-2.0005078e-08
-1.5365123e-10
-0.022429939
-1.9998955e-08
-1.4165562e-10
-0.022429939
-2.0019511e-08
-1.6611339e-10
-0.022429939
-1.9981712e-08
-9.2913594e-11
-0.022429939
-2.0074784e-08
-2.0466204e-10
-0.022429939
-1.9892914e-08
8.336118e-11
-0.022429939
-2.0282149e-08
-4.2700839e-10
-0.022429852
-1.9499735e-08
-0.022342562
-2.0424104e-08
3.8365699e-10
-0.022342544
-1.8138355e-08
-1.7011352e-10
-0.022429835
-1.723731e-08
8.3841331e-11
-0.022429922
-1.7995736e-08
-5.9789499e-11
-0.022429922
-1.7622445e-08
-5.1236393e-12
-0.022429922
-1.7809298e-08
-5.7184969e-11
-0.022429922
-1.7709898e-08
-5.8202949e-11
-0.022429922
-1.775775e-08
-8.276555e-11
-0.022429922
-1.7734408e-08
-9.5228308e-11
-0.022429922
-1.7745074e-08
-1.099374e-10
-0.022429922
-1.7741785e-08
-1.21848e-10
-0.022429922
-1.774291e-08
-1.2818905e-10
-0.022429922
-1.7746937e-08
-1.3866712e-10
-0.022429922
-1.7740831e-08
-1.2699272e-10
-0.022429922
-1.7760885e-08
-1.5057793e-10
-0.022429922
-1.7724047e-08
-7.8914391e-11
-0.022429922
-1.781361e-08
-1.8561393e-10
-0.022429922
-1.7638932e-08
1.0117549e-10
-0.022429922
-1.8009465e-08
-4.2116262e-10
-0.022429835
-1.7250695e-08
-0.022342544
-1.8157046e-08
3.9938773e-10
-0.022342529
-1.5701287e-08
-2.0232805e-10
-0.022429819
-1.466356e-08
9.1887662e-11
-0.022429906
-1.5609532e-08
-6.124215e-11
-0.022429906
-1.5137688e-08
1.5712818e-12
-0.022429906
-1.5364925e-08
-5.2103446e-11
-0.022429906
-1.5240583e-08
-4.9190621e-11
-0.022429906
-1.5298971e-08
-7.3463387e-11
-0.022429906
-1.5269143e-08
-8.4150206e-11
-0.022429906
-1.5282107e-08
-9.8083345e-11
-0.022429906
-1.5277463e-08
-1.0939424e-10
-0.022429906
-1.527881e-08
-1.1490309e-10
-0.022429906
-1.5283955e-08
-1.2633634e-10
-0.022429906
-1.5276288e-08
-1.126335e-10
-0.022429906
-1.5302414e-08
-1.4105313e-10
-0.022429906
-1.5256546e-08
-6.1983411e-11
-0.022429906
-1.5369998e-08
-1.8568333e-10
-0.022429906
-1.515489e-08
1.3590234e-10
-0.022429906
-1.5624147e-08
-4.3413724e-10
-0.022429819
-1.4679294e-08
-0.022342529
-1.5722039e-08
3.9581839e-10
-0.022342516
-1.3459347e-08
-2.1076504e-10
-0.022429806
-1.2442811e-08
8.9560069e-11
-0.022429893
-1.3369278e-08
-6.0256896e-11
-0.022429893
-1.290731e-08
4.512615e-12
-0.022429893
-1.3128228e-08
-4.7037649e-11
-0.022429893
-1.3007277e-08
-4.2285334e-11
-0.022429893
-1.3064376e-08
-6.5198475e-11
-0.022429893
-1.3034939e-08
-7.4457271e-11
-0.022429893
-1.3047838e-08
-8.7376466e-11
-0.022429893
-1.3043085e-08
-9.7867045e-11
-0.022429893
-1.3044353e-08
-1.0262705e-10
-0.022429893
-1.3049392e-08
-1.1401862e-10
-0.022429893
-1.3041306e-08
-9.9679613e-11
-0.022429893
-1.3067374e-08
-1.2871285e-10
-0.022429893
-1.3021344e-08
-4.9490784e-11
-0.022429893
-1.313289e-08
-1.7320001e-10
-0.022429893
-1.2921758e-08
1.5166427e-10
-0.022429893
-1.3381745e-08
-4.2707097e-10
-0.022429806
-1.2456909e-08
-0.022342515
-1.3477257e-08
3.8985303e-10
-0.022342504
-1.1546811e-08
-2.16331e-10
-0.022429795
-1.0543324e-08
8.7387078e-11
-0.022429882
-1.1462423e-08
-6.0342448e-11
-0.022429882
-1.100487e-08
6.5794629e-12
-0.022429882
-1.1222883e-08
-4.3153652e-11
-0.022429882
-1.1103539e-08
-3.6514179e-11
-0.022429882
-1.1160141e-08
-5.8060804e-11
-0.022429882
-1.1130747e-08
-6.589137e-11
-0.022429882
-1.114371e-08
-7.7722332e-11
-0.022429882
-1.1138832e-08
-8.7288062e-11
-0.022429882
-1.114006e-08
-9.1198718e-11
-0.022429882
-1.1145058e-08
-1.0232555e-10
-0.022429882
-1.1136574e-08
-8.7187867e-11
-0.022429882
-1.1162855e-08
-1.1661892e-10
-0.022429882
-1.1116265e-08
-3.6401426e-11
-0.022429882
-1.1227486e-08
-1.6115638e-10
-0.022429882
-1.1017173e-08
1.645076e-10
-0.022429882
-1.1473457e-08
-4.1716924e-10
-0.022429795
-1.0555774e-08
-0.022342504
-1.1562642e-08
3.8347272e-10
-0.022342495
-9.9164177e-09
-2.2134207e-10
-0.022429786
-8.922388e-09
8.4945317e-11
-0.022429873
-9.8382529e-09
-6.1062789e-11
-0.022429873
-9.3828858e-09
7.9576462e-12
-0.022429873
-9.5995494e-09
-4.0157958e-11
-0.022429873
-9.4810094e-09
-3.1673014e-11
-0.022429873
-9.5374818e-09
-5.187679e-11
-0.022429873
-9.5079582e-09
-5.8284513e-11
-0.022429873
-9.5210504e-09
-6.8991231e-11
-0.022429873
-9.516041e-09
-7.7576839e-11
-0.022429873
-9.5172375e-09
-8.0562284e-11
-0.022429873
-9.5222364e-09
-9.1280407e-11
-0.022429873
-9.5133766e-09
-7.5218245e-11
-0.022429873
-9.5399932e-09
-1.0499049e-10
-0.022429873
-9.492647e-09
-2.3635609e-11
-0.022429873
-9.6043663e-09
-1.4999814e-10
-0.022429873
-9.3932205e-09
1.7556183e-10
-0.022429873
-9.8479861e-09
-4.077792e-10
-0.022429786
-8.9337046e-09
-0.022342495
-9.9301719e-09
3.7679096e-10
-0.022342487
-8.5277422e-09
-2.2633086e-10
-0.022429778
-7.5409483e-09
8.2118058e-11
-0.022429864
-8.4552439e-09
-6.2295143e-11
-0.022429864
-8.0009026e-09
8.4233004e-12
-0.022429865
-8.2169131e-09
-3.7919983e-11
-0.022429865
-8.0988479e-09
-2.7616496e-11
-0.022429865
-8.1553288e-09
-4.6503858e-11
-0.022429865
-8.1255729e-09
-5.1508049e-11
-0.022429865
-8.138822e-09
-6.107655e-11
-0.022429865
-8.1336788e-09
-6.8661569e-11
-0.022429865
-8.1348343e-09
-7.0664683e-11
-0.022429864
-8.1398883e-09
-8.0874184e-11
-0.022429864
-8.1306597e-09
-6.3790589e-11
-0.022429864
-8.157676e-09
-9.3618869e-11
-0.022429864
-8.1095039e-09
-1.0163955e-11
-0.022429864
-8.2222088e-09
-1.3865961e-10
-0.022429864
-8.0092524e-09
1.8672035e-10
-0.022429864
-8.4638936e-09
-3.9764735e-10
-0.022429778
-7.5508444e-09
-0.022342487
-8.5397923e-09
3.7003089e-10
-0.02234248
-7.3451148e-09
-2.3131927e-10
-0.022429771
-6.3642229e-09
7.9012431e-11
-0.022429857
-7.2776973e-09
-6.3831816e-11
-0.022429858
-6.8238242e-09
8.6324023e-12
-0.022429858
-7.0395787e-09
-3.6202934e-11
-0.022429858
-6.9216603e-09
-2.4191201e-11
-0.022429858
-6.9782805e-09
-4.1807851e-11
-0.022429858
-6.9482517e-09
-4.5437355e-11
-0.022429858
-6.9616715e-09
-5.3865934e-11
-0.022429858
-6.9563984e-09
-6.0445681e-11
-0.022429858
-6.9575042e-09
-6.1433547e-11
-0.022429858
-6.9626459e-09
-7.1088584e-11
-0.022429858
-6.9530438e-09
-5.2987313e-11
-0.022429858
-6.9804917e-09
-8.287787e-11
-0.022429858
-6.9314359e-09
1.8639475e-12
-0.022429857
-7.0449808e-09
-1.2812569e-10
-0.022429858
-6.8306608e-09
1.9679162e-10
-0.022429857
-7.2852317e-09
-3.8831914e-10
-0.022429771
-6.3731468e-09
-0.02234248
-7.3553426e-09
3.6313631e-10
-0.022342474
-6.3376882e-09
-2.3645861e-10
-0.022429765
-5.3616675e-09
7.5651148e-11
-0.022429852
-6.2746709e-09
-6.5669314e-11
-0.022429852
-5.8209624e-09
8.4784686e-12
-0.022429852
-6.036665e-09
-3.4951023e-11
-0.022429852
-5.9187153e-09
-2.130345e-11
-0.022429852
-5.9755403e-09
-3.7693873e-11
-0.022429852
-5.9452197e-09
-3.9981536e-11
-0.022429852
-5.9588157e-09
-4.7276302e-11
-0.022429852
-5.9534185e-09
-5.2852305e-11
-0.022429852
-5.9544722e-09
-5.280715e-11
-0.022429852
-5.9597132e-09
-6.189646e-11
-0.022429852
-5.9497242e-09
-4.2805087e-11
-0.022429852
-5.9776258e-09
-7.2725236e-11
-0.022429852
-5.9276496e-09
1.2564651e-11
-0.022429852
-6.0417258e-09
-1.1771695e-10
-0.022429852
-5.8267807e-09
2.0706738e-10
-0.022429852
-6.2812616e-09
-3.7844282e-10
-0.022429765
-5.3693561e-09
-0.022342474
-6.3463798e-09
3.562644e-10
-0.022342469
-5.4791335e-09
-2.4165558e-10
-0.022429759
-4.5072713e-09
7.2120416e-11
-0.022429846
-5.4200357e-09
-6.7755096e-11
-0.022429846
-4.9663188e-09
8.0264147e-12
-0.022429846
-5.1820951e-09
-3.4086794e-11
-0.022429846
-5.0640009e-09
-1.8867045e-11
-0.022429846
-5.1210683e-09
-3.4070706e-11
-0.022429846
-5.0904522e-09
-3.5048381e-11
-0.022429846
-5.104225e-09
-4.1216499e-11
-0.022429846
-5.098711e-09
-4.5795305e-11
-0.022429846
-5.0997079e-09
-4.4698183e-11
-0.022429846
-5.1050645e-09
-5.3227697e-11
-0.022429846
-5.0946617e-09
-3.3162511e-11
-0.022429846
-5.1230555e-09
-6.3193091e-11
-0.022429846
-5.0720912e-09
2.167497e-11
-0.022429846
-5.1863361e-09
-1.080884e-10
-0.022429846
-4.9716782e-09
2.1642498e-10
-0.022429846
-5.425615e-09
-3.6937088e-10
-0.02242976
-4.5141317e-09
-0.022342469
-5.4861623e-09
3.4932695e-10
-0.022342464
-4.7468328e-09
-2.4699394e-10
-0.022429755
-3.7784957e-09
6.8419501e-11
-0.022429842
-4.6911323e-09
-7.0056953e-11
-0.022429842
-4.2372973e-09
7.3523817e-12
-0.022429842
-4.4532141e-09
-3.3548334e-11
-0.022429842
-4.334916e-09
-1.682684e-11
-0.022429842
-4.3922351e-09
-3.0874176e-11
-0.022429842
-4.3613333e-09
-3.057152e-11
-0.022429842
-4.3752773e-09
-3.5618816e-11
-0.022429842
-4.3696545e-09
-3.920966e-11
-0.022429842
-4.3705867e-09
-3.7032466e-11
-0.022429842
-4.3760823e-09
-4.5014234e-11
-0.022429842
-4.3652249e-09
-2.3884467e-11
-0.022429842
-4.3941848e-09
-5.3960173e-11
-0.022429842
-4.3421645e-09
3.0663469e-11
-0.022429842
-4.4565552e-09
-9.8379838e-11
-0.022429842
-4.2423103e-09
2.2609973e-10
-0.022429842
-4.6958056e-09
-3.5983399e-10
-0.022429755
-3.7842649e-09
-0.022342464
-4.7524222e-09
3.4244228e-10
-0.022342461
-4.1217227e-09
-2.5236982e-10
-0.022429751
-3.1564654e-09
6.4604713e-11
-0.022429838
-4.0690739e-09
-7.2559575e-11
-0.022429838
-3.6150456e-09
6.3312425e-12
-0.022429838
-3.831116e-09
-3.3308707e-11
-0.022429838
-3.7126552e-09
-1.5129098e-11
-0.022429838
-3.7701892e-09
-2.8037579e-11
-0.022429838
-3.7390167e-09
-2.6480179e-11
-0.022429838
-3.7531217e-09
-3.0408046e-11
-0.022429838
-3.7473996e-09
-3.3019424e-11
-0.022429838
-3.7482563e-09
-2.9719098e-11
-0.022429838
-3.7539242e-09
-3.7174342e-11
-0.022429838
-3.7425624e-09
-1.4805137e-11
-0.022429838
-3.7722122e-09
-4.4985723e-11
-0.022429838
-3.7189733e-09
3.9573549e-11
-0.022429838
-3.8336412e-09
-8.9097167e-11
-0.022429838
-3.6197311e-09
2.3511001e-10
-0.022429838
-4.0727399e-09
-3.509821e-10
-0.022429751
-3.161455e-09
-0.02234246
-4.1257487e-09
3.355306e-10
-0.022342457
-3.5876024e-09
-2.5784843e-10
-0.022429748
-2.6249881e-09
6.0675128e-11
-0.022429835
-3.5376212e-09
-7.52353e-11
-0.022429835
-3.0833352e-09
5.0433547e-12
-0.022429835
-3.2995632e-09
-3.3320733e-11
-0.022429835
-3.1809784e-09
-1.3732685e-11
-0.022429835
-3.2386885e-09
-2.5514962e-11
-0.022429835
-3.207267e-09
-2.2728239e-11
-0.022429835
-3.2215193e-09
-2.5537695e-11
-0.022429835
-3.2157075e-09
-2.7180613e-11
-0.022429835
-3.2164738e-09
-2.2703049e-11
-0.022429835
-3.2223529e-09
-2.9596969e-11
-0.022429835
-3.2104431e-09
-5.6051517e-12
-0.022429835
-3.2409412e-09
-3.6198741e-11
-0.022429835
-3.1862106e-09
4.8625782e-11
-0.022429835
-3.3013978e-09
-7.9788757e-11
-0.022429835
-3.0876054e-09
2.444482e-10
-0.022429835
-3.5403984e-09
-3.4175279e-10
-0.022429748
-2.6289453e-09
-0.022342457
-3.5902401e-09
3.2869085e-10
-0.022342454
-3.1308381e-09
-2.6334004e-10
-0.022429745
-2.170547e-09
5.6686654e-11
-0.022429832
-3.0832841e-09
-7.8037641e-11
-0.022429832
-2.6286827e-09
3.5934751e-12
-0.022429832
-2.8450883e-09
-3.3530702e-11
-0.022429832
-2.7263911e-09
-1.2585057e-11
-0.022429832
-2.784251e-09
-2.3253929e-11
-0.022429832
-2.7526053e-09
-1.9263976e-11
-0.022429832
-2.7669908e-09
-2.0961329e-11
-0.022429832
-2.7610972e-09
-2.1665547e-11
-0.022429832
-2.7617538e-09
-1.5982893e-11
-0.022429832
-2.7678788e-09
-2.2305017e-11
-0.022429832
-2.7553594e-09
3.5533073e-12
-0.022429832
-2.7867032e-09
-2.7730625e-11
-0.022429832
-2.7305697e-09
5.7387416e-11
-0.022429832
-2.84636e-09
-7.0939459e-11
-0.022429832
-2.6325094e-09
2.5321668e-10
-0.022429832
-3.0851178e-09
-3.3312096e-10
-0.022429745
-2.1737167e-09
-0.022342454
-3.1319812e-09
3.2184868e-10
-0.022342452
-2.7398799e-09
-2.6889556e-10
-0.022429743
-1.7815981e-09
5.2637461e-11
-0.02242983
-2.6944778e-09
-8.0952081e-11
-0.02242983
-2.2395069e-09
2.0017976e-12
-0.02242983
-2.4561068e-09
-3.3911123e-11
-0.02242983
-2.337305e-09
-1.165286e-11
-0.02242983
-2.3952904e-09
-2.1219539e-11
-0.02242983
-2.3634455e-09
-1.6051137e-11
-0.02242983
-2.3779503e-09
-1.6646755e-11
-0.02242983
-2.3719791e-09
-1.6461979e-11
-0.02242983
-2.3725074e-09
-9.571374e-12
-0.02242983
-2.3789129e-09
-1.5611993e-11
-0.02242983
-2.3656598e-09
1.1120592e-11
-0.02242983
-2.3975686e-09
-1.9863785e-11
-0.02242983
-2.3407973e-09
6.6018198e-11
-0.02242983
-2.4569745e-09
-6.217086e-11
-0.02242983
-2.242838e-09
2.6223296e-10
-0.02242983
-2.6954939e-09
-3.2420956e-10
-0.022429743
-1.7837637e-09
-0.022342452
-2.7396693e-09
3.1507893e-10
-0.02234245
-2.4050014e-09
-2.7443857e-10
-0.022429741
-1.4485096e-09
4.8569918e-11
-0.022429828
-2.3615886e-09
-8.3948693e-11
-0.022429828
-1.9061986e-09
3.0039342e-13
-0.022429828
-2.1230143e-09
-3.4428171e-11
-0.022429828
-2.0041135e-09
-1.0895554e-11
-0.022429828
-2.0622027e-09
-1.9370788e-11
-0.022429828
-2.0301827e-09
-1.304233e-11
-0.022429828
-2.0447956e-09
-1.2541195e-11
-0.022429828
-2.0387467e-09
-1.1491109e-11
-0.022429828
-2.0391468e-09
-3.304766e-12
-0.022429828
-2.0458868e-09
-9.3150791e-12
-0.022429828
-2.0317222e-09
1.7759077e-11
-0.022429828
-2.0641029e-09
-1.2451639e-11
-0.022429828
-2.0071026e-09
7.4284447e-11
-0.022429828
-2.1235998e-09
-5.3836833e-11
-0.022429828
-1.909035e-09
2.7074315e-10
-0.022429828
-2.3617515e-09
-3.1579923e-10
-0.022429741
-1.4498687e-09
-0.02234245
-2.4033497e-09
3.0832289e-10
-0.022342448
-2.1179604e-09
-2.8001383e-10
-0.022429739
-1.1630283e-09
4.4482273e-11
-0.022429826
-2.0763414e-09
-8.7015194e-11
-0.022429826
-1.6204794e-09
-1.4915684e-12
-0.022429826
-1.8375295e-09
-3.5060505e-11
-0.022429826
-1.718537e-09
-1.0290494e-11
-0.022429826
-1.7767079e-09
-1.7688039e-11
-0.022429826
-1.7445353e-09
-1.022306e-11
-0.022429826
-1.7592458e-09
-8.647758e-12
-0.022429826
-1.7531068e-09
-6.6749045e-12
-0.022429826
-1.7533931e-09
3.1160385e-12
-0.022429826
-1.7604515e-09
-3.427586e-12
-0.022429826
-1.7453715e-09
2.4517214e-11
-0.022429826
-1.7783054e-09
-5.7984848e-12
-0.022429826
-1.720982e-09
8.237325e-11
-0.022429826
-1.8378718e-09
-4.5562843e-11
-0.022429826
-1.6227914e-09
2.7946004e-10
-0.022429826
-2.0757414e-09
-3.0717514e-10
-0.022429739
-1.1634011e-09
-0.022342448
-2.1149754e-09
3.0164301e-10
-0.022342447
-1.8717593e-09
-2.8556188e-10
-0.022429738
-9.1821407e-10
4.0409681e-11
-0.022429825
-1.8318245e-09
-9.0126266e-11
-0.022429825
-1.3754356e-09
-3.3443975e-12
-0.022429825
-1.5927409e-09
-3.5779045e-11
-0.022429825
-1.4736686e-09
-9.8035017e-12
-0.022429825
-1.5318981e-09
-1.6138974e-11
-0.022429825
-1.4995952e-09
-7.5649274e-12
-0.022429825
-1.5143964e-09
-4.9925591e-12
-0.022429825
-1.5081352e-09
-2.3192711e-12
-0.022429825
-1.5082798e-09
8.1407833e-12
-0.022429825
-1.5154347e-09
2.3636714e-12
-0.022429825
-1.5002765e-09
3.1376105e-11
-0.022429825
-1.5331122e-09
1.9565927e-12
-0.022429825
-1.4759231e-09
9.0424244e-11
-0.022429825
-1.5924636e-09
-3.7571118e-11
-0.022429825
-1.3771813e-09
2.8777422e-10
-0.022429825
-1.8304007e-09
-2.9895285e-10
-0.022429738
-9.1775698e-10
-0.022342447
-1.8673644e-09
2.9498691e-10
-0.022342445
-1.6605e-09
-2.9111384e-10
-0.022429736
-7.0817204e-10
3.6351713e-11
-0.022429823
-1.6221108e-09
-9.3267709e-11
-0.022429823
-1.165148e-09
-5.2416767e-12
-0.022429823
-1.3827166e-09
-3.6562068e-11
-0.022429823
-1.263589e-09
-9.4093076e-12
-0.022429823
-1.3218476e-09
-1.4686669e-11
-0.022429823
-1.2894406e-09
-4.9909568e-12
-0.022429823
-1.3043381e-09
-1.5243743e-12
-0.022429823
-1.2979292e-09
1.7625133e-12
-0.022429823
-1.2979808e-09
1.3216445e-11
-0.022429823
-1.3051495e-09
9.0677392e-12
-0.022429823
-1.2903671e-09
3.8191195e-11
-0.022429823
-1.3223465e-09
9.657092e-12
-0.022429823
-1.2658635e-09
9.8406695e-11
-0.022429823
-1.3815615e-09
-2.9616283e-11
-0.022429823
-1.1662852e-09
2.9626557e-10
-0.022429823
-1.6199111e-09
-2.9056312e-10
-0.022429736
-7.0674695e-10
-0.022342445
-1.6547739e-09
2.8839694e-10
-0.022342444
-1.4791763e-09
-2.9661542e-10
-0.022429735
-5.2795524e-10
3.2337602e-11
-0.022429822
-1.4422586e-09
-9.6406384e-11
-0.022429822
-9.8468918e-10
-7.1646236e-12
-0.022429822
-1.2025149e-09
-3.7375239e-11
-0.022429822
-1.0833765e-09
-9.0781551e-12
-0.022429822
-1.1416225e-09
-1.3296047e-11
-0.022429822
-1.1091466e-09
-2.3928305e-12
-0.022429822
-1.1241676e-09
2.2536246e-12
-0.022429822
-1.1175937e-09
6.7175634e-12
-0.022429822
-1.1177487e-09
1.8561851e-11
-0.022429822
-1.1244804e-09
1.6256825e-11
-0.022429822
-1.1105012e-09
4.5178902e-11
-0.022429822
-1.1412561e-09
1.8477486e-11
-0.022429822
-1.0860401e-09
1.0633303e-10
-0.022429822
-1.2000504e-09
-2.196969e-11
-0.022429822
-9.851581e-10
3.0434937e-10
-0.022429822
-1.4392358e-09
-2.8249529e-10
-0.022429735
-5.2571829e-10
-0.022342444
-1.4720512e-09
2.8183771e-10
-0.022342443
-1.3234132e-09
-3.0210499e-10
-0.022429734
-3.731562e-10
2.8358284e-11
-0.022429821
-1.287861e-09
-9.9538814e-11
-0.022429821
-8.2964808e-10
-9.0861288e-12
-0.022429821
-1.0476801e-09
-3.8216808e-11
-0.022429821
-9.2866605e-10
-8.8307143e-12
-0.022429821
-9.8681179e-10
-1.1944476e-11
-0.022429821
-9.5431051e-10
3.046781e-13
-0.022429821
-9.6945483e-10
5.560654e-12
-0.022429821
-9.625718e-10
1.1455038e-11
-0.022429821
-9.6305954e-10
2.3751795e-11
-0.022429821
-9.6924025e-10
2.2953914e-11
-0.022429821
-9.5603263e-10
5.1918621e-11
-0.022429821
-9.8562605e-10
2.6889701e-11
-0.022429821
-9.3166702e-10
1.140108e-10
-0.022429821
-1.0439378e-09
-1.4798914e-11
-0.022429821
-8.2952008e-10
3.1243569e-10
-0.022429821
-1.2839815e-09
-2.7428441e-10
-0.022429734
-3.7003491e-10
-0.022342443
-1.3149301e-09
2.7533513e-10
-0.022342442
-1.1896424e-09
-3.0752595e-10
-0.022429734
-2.4027567e-10
2.4429444e-11
-0.02242982
-1.1553974e-09
-1.0274348e-10
-0.02242982
-6.9651296e-10
-1.1582607e-11
-0.022429821
-9.1461419e-10
-3.9175642e-11
-0.022429821
-7.9604414e-10
-8.6922657e-12
-0.022429821
-8.5392017e-10
-1.0738045e-11
-0.022429821
-8.214143e-10
2.5497627e-12
-0.022429821
-8.3657075e-10
8.8211966e-12
-0.022429821
-8.2960589e-10
1.5923163e-11
-0.022429821
-8.3028444e-10
2.881724e-11
-0.022429821
-8.3596419e-10
2.9362142e-11
-0.022429821
-8.234436e-10
5.8483771e-11
-0.022429821
-8.51977e-10
3.4876425e-11
-0.02242982
-7.9918438e-10
1.2163234e-10
-0.02242982
-9.0983656e-10
-6.5086705e-12
-0.022429821
-6.9625824e-10
3.2039889e-10
-0.02242982
-1.1501919e-09
-2.6623563e-10
-0.022429734
-2.3635368e-10
-0.022342442
-1.1797177e-09
2.6886165e-10
-0.022342441
-1.0746741e-09
-3.128686e-10
-0.022429733
-1.2611853e-10
2.0592469e-11
-0.02242982
-1.0416581e-09
-1.0585768e-10
-0.02242982
-5.8210046e-10
-1.3902183e-11
-0.02242982
-8.0024646e-10
-4.0113036e-11
-0.02242982
-6.8215013e-10
-8.6258203e-12
-0.02242982
-7.3971806e-10
-9.5912634e-12
-0.02242982
-7.0725794e-10
4.6289842e-12
-0.02242982
-7.2237017e-10
1.1985424e-11
-0.02242982
-7.1539771e-10
2.023513e-11
-0.02242982
-7.1620892e-10
3.3775805e-11
-0.02242982
-7.2144496e-10
3.556882e-11
-0.02242982
-7.0952061e-10
6.4923004e-11
-0.02242982
-7.3710299e-10
4.2641136e-11
-0.02242982
-6.8537076e-10
1.2917839e-10
-0.02242982
-7.9450674e-10
1.9066997e-12
-0.02242982
-5.8189548e-10
3.284577e-10
-0.02242982
-1.0349757e-09
-2.5805753e-10
-0.022429733
-1.2130976e-10
-0.022342441
-1.063335e-09
2.6241776e-10
-0.022342441
-9.7587622e-10
-3.1807196e-10
-0.022429732
-2.8097222e-11
1.6967686e-11
-0.022429819
-9.4399852e-10
-1.0886775e-10
-0.022429819
-4.8389562e-10
-1.616714e-11
-0.022429819
-7.0200531e-10
-4.1040248e-11
-0.022429819
-5.8441046e-10
-8.5864629e-12
-0.022429819
-6.4164364e-10
-8.4645695e-12
-0.022429819
-6.0926138e-10
6.7439025e-12
-0.022429819
-6.243202e-10
1.5098286e-11
-0.022429819
-6.1733361e-10
2.4437688e-11
-0.022429819
-6.1825544e-10
3.8653404e-11
-0.022429819
-6.231038e-10
4.1619853e-11
-0.022429819
-6.1169468e-10
7.1257207e-11
-0.022429819
-6.3842836e-10
5.0211945e-11
-0.022429819
-5.8765649e-10
1.3648701e-10
-0.022429819
-6.9534734e-10
1.0035053e-11
-0.022429819
-4.8378774e-10
3.3616536e-10
-0.022429819
-9.3576518e-10
-2.500581e-10
-0.022429732
-2.2496458e-11
-0.02234244
-9.6307817e-10
2.559564e-10
-0.02234244
-8.9086053e-10
-3.2332246e-10
-0.022429732
5.6227753e-11
1.2732708e-11
-0.022429819
-8.598616e-10
-1.1194232e-10
-0.022429819
-3.9964247e-10
-1.8449264e-11
-0.022429819
-6.175094e-10
-4.1975841e-11
-0.022429819
-5.0041856e-10
-8.5660535e-12
-0.022429819
-5.5729797e-10
-7.3680259e-12
-0.022429819
-5.250072e-10
8.840362e-12
-0.022429819
-5.4001443e-10
1.8162507e-11
-0.022429819
-5.3300192e-10
2.8549678e-11
-0.022429819
-5.3401646e-10
4.3460184e-11
-0.022429819
-5.3852558e-10
4.7543093e-11
-0.022429819
-5.2756147e-10
7.7521418e-11
-0.022429819
-5.5354229e-10
5.7683042e-11
-0.022429819
-5.0364474e-10
1.4367739e-10
-0.022429819
-6.0996241e-10
1.7873674e-11
-0.022429819
-3.9959488e-10
3.4387289e-10
-0.022429819
-8.5013029e-10
-2.4194806e-10
-0.022429732
6.2660969e-11
-0.02234244
-8.7663452e-10
2.4953177e-10
-0.022342439
-8.177731e-10
-3.2855216e-10
-0.022429731
1.2862672e-10
8.3535154e-12
-0.022429818
-7.8752265e-10
-1.150161e-10
-0.022429818
-3.2740746e-10
-2.0724174e-11
-0.022429818
-5.4492676e-10
-4.2912634e-11
-0.022429818
-4.2833765e-10
-8.5522295e-12
-0.022429818
-4.8485566e-10
-6.2967337e-12
-0.022429818
-4.5265966e-10
1.090916e-11
-0.022429818
-4.6761871e-10
2.1181907e-11
-0.022429818
-4.6057878e-10
3.2587485e-11
-0.022429818
-4.616673e-10
4.8206341e-11
-0.022429818
-4.6587747e-10
5.3358484e-11
-0.022429818
-4.5529759e-10
8.3734549e-11
-0.022429818
-4.8061242e-10
6.510993e-11
-0.022429818
-4.3151376e-10
1.5108367e-10
-0.022429818
-5.3658546e-10
2.7494747e-11
-0.022429818
-3.2779003e-10
3.5170825e-10
-0.022429818
-7.7590389e-10
-2.339159e-10
-0.022429731
1.3587935e-10
-0.022342439
-8.0208104e-10
2.4316436e-10
-0.022342439
-7.5488357e-10
-3.3377634e-10
-0.022429731
1.9081557e-10
4.0664795e-12
-0.022429818
-7.2529612e-10
-1.1806805e-10
-0.022429818
-2.6535903e-10
-2.2965108e-11
-0.022429818
-4.8249564e-10
-4.3844176e-11
-0.022429818
-3.6639506e-10
-8.5410952e-12
-0.022429818
-4.2255295e-10
-5.2498153e-12
-0.022429818
-3.9044653e-10
1.2944154e-11
-0.022429818
-4.0535637e-10
2.4158658e-11
-0.022429818
-3.9830994e-10
3.6554997e-11
-0.022429818
-3.994485e-10
5.2891326e-11
-0.022429818
-4.0338969e-10
5.906654e-11
-0.022429818
-3.931401e-10
8.9879806e-11
-0.022429818
-4.1786524e-10
7.2403886e-11
-0.022429818
-3.6947596e-10
1.5838396e-10
-0.022429818
-4.7339756e-10
3.6470032e-11
-0.022429818
-2.6603938e-10
3.59572e-10