/*--------------------------------*- C++ -*----------------------------------*\
| =========                 |                                                 |
| \\      /  F ield         | OpenFOAM: The Open Source CFD Toolbox           |
|  \\    /   O peration     | Version:  2406                                  |
|   \\  /    A nd           | Website:  www.openfoam.com                      |
|    \\/     M anipulation  |                                                 |
\*---------------------------------------------------------------------------*/
FoamFile
{
    version     2.0;
    format      ascii;
    arch        "LSB;label=32;scalar=64";
    class       volScalarField;
    location    "0.00456296/fluid";
    object      T;
}
// * * * * * * * * * * * * * * * * * * * * * * * * * * * * * * * * * * * * * //

dimensions      [0 0 0 1 0 0 0];

internalField   nonuniform List<scalar> 
53600
(
299.40529
299.40371
299.4037
299.4037
299.40371
299.40371
299.40371
299.40371
299.40371
299.40371
299.40371
299.40371
299.40371
299.40371
299.40371
299.40371
299.40371
299.40371
299.40372
299.4053
299.38544
299.38384
299.38384
299.38384
299.38384
299.38384
299.38384
299.38384
299.38385
299.38385
299.38385
299.38385
299.38385
299.38385
299.38385
299.38385
299.38385
299.38385
299.38385
299.38545
299.36559
299.36398
299.36398
299.36398
299.36398
299.36398
299.36398
299.36398
299.36398
299.36398
299.36399
299.36399
299.36399
299.36399
299.36399
299.36399
299.36399
299.36399
299.36399
299.3656
299.34574
299.34412
299.34412
299.34412
299.34412
299.34412
299.34412
299.34412
299.34412
299.34412
299.34412
299.34412
299.34413
299.34413
299.34413
299.34413
299.34413
299.34413
299.34413
299.34575
299.32589
299.32426
299.32426
299.32426
299.32426
299.32426
299.32426
299.32426
299.32426
299.32426
299.32426
299.32426
299.32427
299.32427
299.32427
299.32427
299.32427
299.32427
299.32427
299.3259
299.30604
299.3044
299.3044
299.3044
299.3044
299.3044
299.3044
299.3044
299.3044
299.3044
299.3044
299.3044
299.30441
299.30441
299.30441
299.30441
299.30441
299.30441
299.30441
299.30605
299.28619
299.28454
299.28454
299.28454
299.28454
299.28454
299.28454
299.28454
299.28454
299.28454
299.28454
299.28455
299.28455
299.28455
299.28455
299.28455
299.28455
299.28455
299.28455
299.2862
299.26634
299.26468
299.26468
299.26468
299.26468
299.26468
299.26468
299.26468
299.26468
299.26468
299.26469
299.26469
299.26469
299.26469
299.26469
299.26469
299.26469
299.26469
299.26469
299.26635
299.2465
299.24482
299.24482
299.24482
299.24482
299.24482
299.24483
299.24483
299.24483
299.24483
299.24483
299.24483
299.24483
299.24483
299.24483
299.24483
299.24483
299.24483
299.24483
299.2465
299.22665
299.22497
299.22497
299.22497
299.22497
299.22497
299.22497
299.22497
299.22497
299.22497
299.22497
299.22497
299.22497
299.22497
299.22497
299.22497
299.22497
299.22497
299.22497
299.22666
299.2068
299.20511
299.20511
299.20511
299.20511
299.20511
299.20511
299.20511
299.20511
299.20511
299.20511
299.20511
299.20511
299.20511
299.20511
299.20511
299.20511
299.20511
299.20512
299.20681
299.18696
299.18525
299.18525
299.18525
299.18525
299.18525
299.18525
299.18525
299.18525
299.18525
299.18525
299.18525
299.18526
299.18526
299.18526
299.18526
299.18526
299.18526
299.18526
299.18696
299.16711
299.1654
299.16539
299.16539
299.1654
299.1654
299.1654
299.1654
299.1654
299.1654
299.1654
299.1654
299.1654
299.1654
299.1654
299.1654
299.1654
299.1654
299.1654
299.16712
299.14727
299.14554
299.14554
299.14554
299.14554
299.14554
299.14554
299.14554
299.14554
299.14554
299.14554
299.14554
299.14554
299.14554
299.14554
299.14554
299.14554
299.14554
299.14554
299.14727
299.12742
299.12568
299.12568
299.12568
299.12568
299.12568
299.12568
299.12568
299.12568
299.12568
299.12568
299.12568
299.12568
299.12568
299.12569
299.12569
299.12569
299.12569
299.12569
299.12743
299.10758
299.10583
299.10583
299.10583
299.10583
299.10583
299.10583
299.10583
299.10583
299.10583
299.10583
299.10583
299.10583
299.10583
299.10583
299.10583
299.10583
299.10583
299.10583
299.10758
299.08773
299.08597
299.08597
299.08597
299.08597
299.08597
299.08597
299.08597
299.08597
299.08597
299.08597
299.08597
299.08597
299.08597
299.08597
299.08597
299.08597
299.08597
299.08597
299.08773
299.06789
299.06611
299.06611
299.06611
299.06611
299.06611
299.06611
299.06611
299.06611
299.06611
299.06611
299.06612
299.06612
299.06612
299.06612
299.06612
299.06612
299.06612
299.06612
299.06789
299.04804
299.04626
299.04626
299.04626
299.04626
299.04626
299.04626
299.04626
299.04626
299.04626
299.04626
299.04626
299.04626
299.04626
299.04626
299.04626
299.04626
299.04626
299.04626
299.04804
299.02819
299.0264
299.0264
299.0264
299.0264
299.0264
299.0264
299.0264
299.0264
299.0264
299.0264
299.0264
299.0264
299.0264
299.0264
299.0264
299.0264
299.0264
299.0264
299.0282
299.00835
299.00655
299.00654
299.00654
299.00654
299.00655
299.00655
299.00655
299.00655
299.00655
299.00655
299.00655
299.00655
299.00655
299.00655
299.00655
299.00655
299.00655
299.00655
299.00835
298.9885
298.98669
298.98669
298.98669
298.98669
298.98669
298.98669
298.98669
298.98669
298.98669
298.98669
298.98669
298.98669
298.98669
298.98669
298.98669
298.98669
298.98669
298.98669
298.98851
298.96866
298.96683
298.96683
298.96683
298.96683
298.96683
298.96683
298.96683
298.96683
298.96683
298.96683
298.96683
298.96683
298.96683
298.96683
298.96683
298.96683
298.96683
298.96683
298.96866
298.94881
298.94698
298.94698
298.94698
298.94698
298.94698
298.94698
298.94698
298.94698
298.94698
298.94698
298.94698
298.94698
298.94698
298.94698
298.94698
298.94698
298.94698
298.94698
298.94881
298.92897
298.92712
298.92712
298.92712
298.92712
298.92712
298.92712
298.92712
298.92712
298.92712
298.92712
298.92712
298.92712
298.92712
298.92712
298.92712
298.92712
298.92712
298.92712
298.92897
298.90912
298.90726
298.90726
298.90726
298.90726
298.90726
298.90726
298.90726
298.90726
298.90726
298.90726
298.90726
298.90726
298.90726
298.90726
298.90726
298.90726
298.90726
298.90726
298.90912
298.88927
298.8874
298.8874
298.8874
298.8874
298.8874
298.8874
298.8874
298.8874
298.8874
298.8874
298.8874
298.8874
298.8874
298.8874
298.8874
298.8874
298.8874
298.8874
298.88927
298.86943
298.86755
298.86755
298.86755
298.86755
298.86755
298.86755
298.86755
298.86755
298.86755
298.86755
298.86755
298.86755
298.86755
298.86755
298.86754
298.86754
298.86754
298.86755
298.86943
298.84958
298.84769
298.84769
298.84769
298.84769
298.84769
298.84769
298.84769
298.84769
298.84769
298.84769
298.84769
298.84769
298.84769
298.84769
298.84769
298.84769
298.84769
298.84769
298.84958
298.82973
298.82783
298.82783
298.82783
298.82783
298.82783
298.82783
298.82783
298.82783
298.82783
298.82783
298.82783
298.82783
298.82783
298.82783
298.82783
298.82783
298.82783
298.82783
298.82973
298.80988
298.80797
298.80797
298.80797
298.80797
298.80797
298.80797
298.80797
298.80797
298.80797
298.80797
298.80797
298.80797
298.80797
298.80797
298.80797
298.80797
298.80797
298.80797
298.80988
298.79003
298.78811
298.78811
298.78811
298.78811
298.78811
298.78811
298.78811
298.78811
298.78811
298.78811
298.78811
298.78811
298.78811
298.78811
298.78811
298.78811
298.78811
298.78811
298.79003
298.77018
298.76825
298.76825
298.76825
298.76825
298.76825
298.76825
298.76825
298.76825
298.76825
298.76825
298.76825
298.76825
298.76825
298.76825
298.76825
298.76825
298.76825
298.76825
298.77018
298.75033
298.74839
298.74839
298.74839
298.74839
298.74839
298.74839
298.74839
298.74839
298.74839
298.74839
298.74839
298.74839
298.74839
298.74839
298.74838
298.74838
298.74838
298.74838
298.75033
298.73048
298.72853
298.72853
298.72853
298.72853
298.72853
298.72853
298.72852
298.72852
298.72852
298.72852
298.72852
298.72852
298.72852
298.72852
298.72852
298.72852
298.72852
298.72852
298.73048
298.71063
298.70866
298.70866
298.70866
298.70866
298.70866
298.70866
298.70866
298.70866
298.70866
298.70866
298.70866
298.70866
298.70866
298.70866
298.70866
298.70866
298.70866
298.70866
298.71063
298.69078
298.6888
298.6888
298.6888
298.6888
298.6888
298.6888
298.6888
298.6888
298.6888
298.6888
298.6888
298.6888
298.6888
298.6888
298.6888
298.6888
298.6888
298.6888
298.69077
298.67093
298.66894
298.66894
298.66894
298.66894
298.66894
298.66894
298.66893
298.66893
298.66893
298.66893
298.66893
298.66893
298.66893
298.66893
298.66893
298.66893
298.66893
298.66893
298.67092
298.65107
298.64907
298.64907
298.64907
298.64907
298.64907
298.64907
298.64907
298.64907
298.64907
298.64907
298.64907
298.64907
298.64907
298.64907
298.64907
298.64907
298.64907
298.64907
298.65107
298.63122
298.62921
298.62921
298.6292
298.6292
298.6292
298.6292
298.6292
298.6292
298.6292
298.6292
298.6292
298.6292
298.6292
298.6292
298.6292
298.6292
298.6292
298.6292
298.63121
298.61136
298.60934
298.60934
298.60934
298.60934
298.60934
298.60934
298.60934
298.60934
298.60934
298.60934
298.60934
298.60934
298.60934
298.60933
298.60933
298.60933
298.60933
298.60933
298.61136
298.59151
298.58947
298.58947
298.58947
298.58947
298.58947
298.58947
298.58947
298.58947
298.58947
298.58947
298.58947
298.58947
298.58947
298.58947
298.58947
298.58947
298.58946
298.58947
298.5915
298.57165
298.5696
298.5696
298.5696
298.5696
298.5696
298.5696
298.5696
298.5696
298.5696
298.5696
298.5696
298.5696
298.5696
298.5696
298.5696
298.5696
298.5696
298.5696
298.57164
298.55179
298.54973
298.54973
298.54973
298.54973
298.54973
298.54973
298.54973
298.54973
298.54973
298.54973
298.54973
298.54973
298.54973
298.54973
298.54973
298.54973
298.54973
298.54973
298.55178
298.53193
298.52986
298.52986
298.52986
298.52986
298.52986
298.52986
298.52986
298.52986
298.52986
298.52986
298.52986
298.52986
298.52986
298.52986
298.52986
298.52986
298.52985
298.52986
298.53192
298.51207
298.50999
298.50999
298.50999
298.50999
298.50999
298.50999
298.50999
298.50999
298.50999
298.50999
298.50999
298.50999
298.50999
298.50999
298.50998
298.50998
298.50998
298.50998
298.51206
298.49221
298.49012
298.49012
298.49012
298.49012
298.49012
298.49012
298.49012
298.49012
298.49012
298.49011
298.49011
298.49011
298.49011
298.49011
298.49011
298.49011
298.49011
298.49011
298.4922
298.47234
298.47024
298.47024
298.47024
298.47024
298.47024
298.47024
298.47024
298.47024
298.47024
298.47024
298.47024
298.47024
298.47024
298.47024
298.47024
298.47024
298.47024
298.47024
298.47234
298.45248
298.45037
298.45037
298.45037
298.45037
298.45037
298.45037
298.45037
298.45037
298.45037
298.45036
298.45036
298.45036
298.45036
298.45036
298.45036
298.45036
298.45036
298.45036
298.45247
298.43261
298.43049
298.43049
298.43049
298.43049
298.43049
298.43049
298.43049
298.43049
298.43049
298.43049
298.43049
298.43049
298.43049
298.43049
298.43048
298.43048
298.43048
298.43048
298.4326
298.41275
298.41062
298.41061
298.41061
298.41061
298.41061
298.41061
298.41061
298.41061
298.41061
298.41061
298.41061
298.41061
298.41061
298.41061
298.41061
298.41061
298.4106
298.41061
298.41274
298.39288
298.39074
298.39074
298.39073
298.39073
298.39073
298.39073
298.39073
298.39073
298.39073
298.39073
298.39073
298.39073
298.39073
298.39073
298.39073
298.39073
298.39073
298.39073
298.39287
298.37301
298.37086
298.37085
298.37085
298.37085
298.37085
298.37085
298.37085
298.37085
298.37085
298.37085
298.37085
298.37085
298.37085
298.37085
298.37085
298.37085
298.37084
298.37085
298.373
298.35314
298.35097
298.35097
298.35097
298.35097
298.35097
298.35097
298.35097
298.35097
298.35097
298.35097
298.35097
298.35097
298.35097
298.35097
298.35096
298.35096
298.35096
298.35096
298.35313
298.33327
298.33109
298.33109
298.33109
298.33109
298.33109
298.33109
298.33109
298.33109
298.33109
298.33109
298.33108
298.33108
298.33108
298.33108
298.33108
298.33108
298.33108
298.33108
298.33326
298.31339
298.31121
298.3112
298.3112
298.3112
298.3112
298.3112
298.3112
298.3112
298.3112
298.3112
298.3112
298.3112
298.3112
298.3112
298.3112
298.3112
298.31119
298.31119
298.31338
298.29352
298.29132
298.29132
298.29132
298.29132
298.29132
298.29132
298.29132
298.29132
298.29132
298.29131
298.29131
298.29131
298.29131
298.29131
298.29131
298.29131
298.29131
298.29131
298.29351
298.27364
298.27143
298.27143
298.27143
298.27143
298.27143
298.27143
298.27143
298.27143
298.27143
298.27143
298.27143
298.27142
298.27142
298.27142
298.27142
298.27142
298.27142
298.27142
298.27363
298.25376
298.25154
298.25154
298.25154
298.25154
298.25154
298.25154
298.25154
298.25154
298.25154
298.25154
298.25154
298.25154
298.25153
298.25153
298.25153
298.25153
298.25153
298.25153
298.25375
298.23388
298.23165
298.23165
298.23165
298.23165
298.23165
298.23165
298.23165
298.23165
298.23165
298.23165
298.23165
298.23164
298.23164
298.23164
298.23164
298.23164
298.23164
298.23164
298.23387
298.214
298.21176
298.21176
298.21176
298.21176
298.21176
298.21176
298.21176
298.21176
298.21175
298.21175
298.21175
298.21175
298.21175
298.21175
298.21175
298.21175
298.21175
298.21175
298.21399
298.19412
298.19187
298.19187
298.19186
298.19186
298.19186
298.19186
298.19186
298.19186
298.19186
298.19186
298.19186
298.19186
298.19186
298.19186
298.19186
298.19185
298.19185
298.19185
298.19411
298.17424
298.17197
298.17197
298.17197
298.17197
298.17197
298.17197
298.17197
298.17197
298.17197
298.17196
298.17196
298.17196
298.17196
298.17196
298.17196
298.17196
298.17196
298.17196
298.17422
298.15435
298.15207
298.15207
298.15207
298.15207
298.15207
298.15207
298.15207
298.15207
298.15207
298.15207
298.15207
298.15207
298.15206
298.15206
298.15206
298.15206
298.15206
298.15206
298.15434
298.13446
298.13218
298.13217
298.13217
298.13217
298.13217
298.13217
298.13217
298.13217
298.13217
298.13217
298.13217
298.13217
298.13217
298.13216
298.13216
298.13216
298.13216
298.13216
298.13445
298.11457
298.11228
298.11227
298.11227
298.11227
298.11227
298.11227
298.11227
298.11227
298.11227
298.11227
298.11227
298.11227
298.11227
298.11227
298.11226
298.11226
298.11226
298.11226
298.11456
298.09468
298.09238
298.09237
298.09237
298.09237
298.09237
298.09237
298.09237
298.09237
298.09237
298.09237
298.09237
298.09237
298.09237
298.09236
298.09236
298.09236
298.09236
298.09236
298.09467
298.07479
298.07247
298.07247
298.07247
298.07247
298.07247
298.07247
298.07247
298.07247
298.07247
298.07247
298.07247
298.07247
298.07246
298.07246
298.07246
298.07246
298.07246
298.07246
298.07478
298.0549
298.05257
298.05257
298.05257
298.05257
298.05257
298.05257
298.05257
298.05257
298.05257
298.05257
298.05256
298.05256
298.05256
298.05256
298.05256
298.05256
298.05256
298.05256
298.05489
298.03501
298.03267
298.03267
298.03267
298.03267
298.03267
298.03267
298.03267
298.03267
298.03267
298.03267
298.03266
298.03266
298.03266
298.03266
298.03266
298.03266
298.03266
298.03266
298.035
298.01513
298.01277
298.01277
298.01277
298.01277
298.01277
298.01277
298.01277
298.01277
298.01277
298.01277
298.01277
298.01277
298.01276
298.01276
298.01276
298.01276
298.01276
298.01276
298.01511
297.99524
297.99288
297.99288
297.99288
297.99288
297.99288
297.99288
297.99288
297.99288
297.99288
297.99287
297.99287
297.99287
297.99287
297.99287
297.99287
297.99287
297.99287
297.99287
297.99523
297.97537
297.973
297.97299
297.97299
297.97299
297.97299
297.97299
297.97299
297.97299
297.97299
297.97299
297.97299
297.97299
297.97299
297.97298
297.97298
297.97298
297.97298
297.97298
297.97535
297.95551
297.95312
297.95312
297.95312
297.95312
297.95312
297.95312
297.95312
297.95312
297.95312
297.95312
297.95312
297.95311
297.95311
297.95311
297.95311
297.95311
297.95311
297.95311
297.95549
297.93566
297.93327
297.93327
297.93327
297.93327
297.93327
297.93327
297.93327
297.93327
297.93327
297.93326
297.93326
297.93326
297.93326
297.93326
297.93326
297.93326
297.93325
297.93326
297.93564
297.91585
297.91345
297.91345
297.91345
297.91345
297.91345
297.91345
297.91345
297.91344
297.91344
297.91344
297.91344
297.91344
297.91344
297.91344
297.91344
297.91343
297.91343
297.91343
297.91583
297.89608
297.89367
297.89367
297.89367
297.89367
297.89367
297.89367
297.89367
297.89367
297.89367
297.89367
297.89367
297.89366
297.89366
297.89366
297.89366
297.89366
297.89366
297.89366
297.89606
297.87637
297.87397
297.87396
297.87396
297.87396
297.87396
297.87396
297.87396
297.87396
297.87396
297.87396
297.87396
297.87396
297.87395
297.87395
297.87395
297.87395
297.87395
297.87395
297.87635
297.85676
297.85436
297.85435
297.85435
297.85435
297.85435
297.85435
297.85435
297.85435
297.85435
297.85435
297.85435
297.85435
297.85434
297.85434
297.85434
297.85434
297.85434
297.85434
297.85674
297.83729
297.83489
297.83489
297.83488
297.83488
297.83488
297.83488
297.83488
297.83488
297.83488
297.83488
297.83488
297.83488
297.83487
297.83487
297.83487
297.83487
297.83487
297.83487
297.83727
297.81801
297.81562
297.81562
297.81562
297.81561
297.81561
297.81561
297.81561
297.81561
297.81561
297.81561
297.81561
297.81561
297.81561
297.8156
297.8156
297.8156
297.8156
297.8156
297.81799
297.799
297.79663
297.79663
297.79663
297.79663
297.79663
297.79662
297.79662
297.79662
297.79662
297.79662
297.79662
297.79662
297.79662
297.79662
297.79661
297.79661
297.79661
297.79661
297.79899
297.78038
297.77803
297.77803
297.77803
297.77803
297.77803
297.77803
297.77803
297.77802
297.77802
297.77802
297.77802
297.77802
297.77802
297.77802
297.77802
297.77801
297.77801
297.77801
297.78036
297.76228
297.75997
297.75997
297.75997
297.75997
297.75997
297.75997
297.75996
297.75996
297.75996
297.75996
297.75996
297.75996
297.75996
297.75996
297.75995
297.75995
297.75995
297.75995
297.76226
297.74489
297.74264
297.74264
297.74264
297.74264
297.74263
297.74263
297.74263
297.74263
297.74263
297.74263
297.74263
297.74263
297.74263
297.74262
297.74262
297.74262
297.74262
297.74262
297.74487
297.72846
297.72629
297.72629
297.72629
297.72629
297.72628
297.72628
297.72628
297.72628
297.72628
297.72628
297.72628
297.72628
297.72628
297.72627
297.72627
297.72627
297.72627
297.72627
297.72844
297.71331
297.71124
297.71124
297.71124
297.71124
297.71124
297.71124
297.71124
297.71124
297.71123
297.71123
297.71123
297.71123
297.71123
297.71123
297.71123
297.71123
297.71123
297.71123
297.71329
297.69984
297.69791
297.69791
297.69791
297.69791
297.69791
297.6979
297.6979
297.6979
297.6979
297.6979
297.6979
297.6979
297.6979
297.69789
297.69789
297.69789
297.69789
297.69789
297.69982
297.68855
297.6868
297.6868
297.6868
297.68679
297.68679
297.68679
297.68679
297.68679
297.68679
297.68679
297.68678
297.68678
297.68678
297.68678
297.68678
297.68678
297.68678
297.68678
297.68853
297.68005
297.67853
297.67853
297.67852
297.67852
297.67852
297.67852
297.67852
297.67851
297.67851
297.67851
297.67851
297.67851
297.67851
297.67851
297.67851
297.67851
297.67851
297.67851
297.68003
297.67509
297.67385
297.67384
297.67384
297.67383
297.67383
297.67383
297.67383
297.67383
297.67382
297.67382
297.67382
297.67382
297.67382
297.67382
297.67382
297.67382
297.67383
297.67383
297.67507
297.67454
297.67362
297.67362
297.67361
297.67361
297.6736
297.6736
297.6736
297.6736
297.6736
297.67359
297.67359
297.67359
297.67359
297.67359
297.6736
297.6736
297.6736
297.67361
297.67452
297.67938
297.67887
297.67886
297.67885
297.67884
297.67884
297.67884
297.67883
297.67883
297.67883
297.67883
297.67883
297.67883
297.67883
297.67883
297.67883
297.67884
297.67884
297.67885
297.67936
297.69075
297.6907
297.69069
297.69067
297.69067
297.69066
297.69066
297.69065
297.69065
297.69065
297.69065
297.69065
297.69065
297.69065
297.69065
297.69066
297.69066
297.69067
297.69068
297.69073
297.70986
297.71033
297.71032
297.7103
297.71029
297.71029
297.71028
297.71028
297.71027
297.71027
297.71027
297.71027
297.71027
297.71027
297.71028
297.71028
297.71029
297.7103
297.71032
297.70984
297.73799
297.73905
297.73903
297.73901
297.739
297.73899
297.73898
297.73897
297.73897
297.73897
297.73897
297.73897
297.73897
297.73897
297.73898
297.73899
297.739
297.73901
297.73903
297.73797
297.77641
297.77811
297.77809
297.77806
297.77805
297.77804
297.77803
297.77802
297.77802
297.77801
297.77801
297.77801
297.77802
297.77802
297.77803
297.77804
297.77805
297.77807
297.7781
297.77639
297.82636
297.82873
297.8287
297.82867
297.82865
297.82863
297.82862
297.82862
297.82861
297.82861
297.82861
297.82861
297.82861
297.82862
297.82863
297.82864
297.82866
297.82869
297.82871
297.82634
297.88887
297.89193
297.89189
297.89186
297.89183
297.89181
297.8918
297.89179
297.89179
297.89178
297.89178
297.89178
297.89179
297.8918
297.89181
297.89182
297.89185
297.89188
297.89192
297.88885
297.96474
297.96848
297.96844
297.96839
297.96837
297.96834
297.96833
297.96832
297.96831
297.96831
297.96831
297.96831
297.96831
297.96832
297.96834
297.96836
297.96838
297.96843
297.96847
297.96472
298.05439
298.05877
298.05872
298.05867
298.05864
298.05861
298.05859
298.05858
298.05857
298.05857
298.05857
298.05857
298.05858
298.05859
298.05861
298.05863
298.05866
298.05871
298.05876
298.05437
298.15775
298.16271
298.16265
298.16259
298.16256
298.16253
298.16251
298.16249
298.16248
298.16248
298.16248
298.16248
298.16249
298.1625
298.16252
298.16255
298.16259
298.16264
298.1627
298.15774
298.27421
298.27964
298.27957
298.2795
298.27946
298.27943
298.27941
298.27939
298.27938
298.27937
298.27937
298.27938
298.27939
298.2794
298.27942
298.27945
298.27949
298.27956
298.27963
298.27419
298.40248
298.40825
298.40817
298.4081
298.40805
298.40802
298.408
298.40798
298.40797
298.40796
298.40796
298.40797
298.40798
298.40799
298.40802
298.40805
298.4081
298.40817
298.40824
298.40246
298.54064
298.54661
298.54652
298.54645
298.5464
298.54636
298.54634
298.54632
298.54631
298.5463
298.5463
298.5463
298.54632
298.54633
298.54636
298.54639
298.54644
298.54652
298.5466
298.54063
298.68616
298.69215
298.69206
298.69198
298.69193
298.69189
298.69187
298.69185
298.69183
298.69183
298.69183
298.69183
298.69185
298.69186
298.69189
298.69193
298.69198
298.69206
298.69215
298.68615
298.83595
298.8418
298.8417
298.84162
298.84157
298.84153
298.84151
298.84149
298.84148
298.84147
298.84147
298.84148
298.84149
298.84151
298.84153
298.84157
298.84162
298.8417
298.8418
298.83594
298.98656
298.9921
298.99201
298.99193
298.99188
298.99184
298.99181
298.9918
298.99178
298.99178
298.99178
298.99178
298.9918
298.99181
298.99184
298.99188
298.99193
298.99201
298.9921
298.98654
299.13435
299.13946
299.13936
299.13929
299.13924
299.1392
299.13918
299.13916
299.13915
299.13914
299.13914
299.13915
299.13916
299.13918
299.1392
299.13924
299.13929
299.13936
299.13946
299.13434
299.27576
299.28032
299.28023
299.28016
299.28012
299.28008
299.28006
299.28005
299.28003
299.28003
299.28003
299.28004
299.28005
299.28006
299.28009
299.28012
299.28016
299.28023
299.28032
299.27575
299.40755
299.4115
299.41141
299.41135
299.41131
299.41128
299.41126
299.41124
299.41123
299.41123
299.41123
299.41123
299.41124
299.41126
299.41128
299.41131
299.41135
299.41141
299.4115
299.40754
299.52702
299.53032
299.53025
299.53019
299.53016
299.53013
299.53011
299.5301
299.53009
299.53009
299.53009
299.53009
299.5301
299.53011
299.53013
299.53016
299.5302
299.53025
299.53032
299.52702
299.63223
299.63489
299.63483
299.63478
299.63475
299.63473
299.63471
299.6347
299.6347
299.63469
299.63469
299.6347
299.6347
299.63471
299.63473
299.63475
299.63478
299.63483
299.63489
299.63222
299.72207
299.72414
299.72409
299.72405
299.72403
299.72401
299.724
299.72399
299.72398
299.72398
299.72398
299.72398
299.72399
299.724
299.72401
299.72403
299.72405
299.72409
299.72414
299.72207
299.79635
299.79789
299.79785
299.79782
299.7978
299.79779
299.79778
299.79777
299.79777
299.79777
299.79777
299.79777
299.79777
299.79778
299.79779
299.7978
299.79782
299.79785
299.79789
299.79635
299.85568
299.85678
299.85675
299.85672
299.85671
299.8567
299.85669
299.85669
299.85668
299.85668
299.85668
299.85668
299.85669
299.85669
299.8567
299.85671
299.85672
299.85675
299.85678
299.85567
299.90136
299.90211
299.90208
299.90207
299.90206
299.90205
299.90204
299.90204
299.90204
299.90204
299.90204
299.90204
299.90204
299.90204
299.90205
299.90206
299.90207
299.90208
299.90211
299.90136
299.93518
299.93566
299.93564
299.93563
299.93562
299.93562
299.93562
299.93561
299.93561
299.93561
299.93561
299.93561
299.93561
299.93562
299.93562
299.93562
299.93563
299.93564
299.93566
299.93518
299.95919
299.95948
299.95947
299.95946
299.95946
299.95945
299.95945
299.95945
299.95945
299.95945
299.95945
299.95945
299.95945
299.95945
299.95945
299.95946
299.95946
299.95947
299.95948
299.95919
299.97549
299.97564
299.97563
299.97563
299.97563
299.97563
299.97562
299.97562
299.97562
299.97562
299.97562
299.97562
299.97562
299.97562
299.97563
299.97563
299.97563
299.97563
299.97564
299.97549
299.98602
299.98609
299.98608
299.98608
299.98608
299.98608
299.98608
299.98608
299.98608
299.98608
299.98608
299.98608
299.98608
299.98608
299.98608
299.98608
299.98608
299.98608
299.98609
299.98602
299.99247
299.99249
299.99249
299.99249
299.99249
299.99248
299.99248
299.99248
299.99248
299.99248
299.99248
299.99248
299.99248
299.99248
299.99248
299.99249
299.99249
299.99249
299.99249
299.99247
299.9962
299.99619
299.99619
299.99619
299.99619
299.99619
299.99619
299.99619
299.99619
299.99619
299.99619
299.99619
299.99619
299.99619
299.99619
299.99619
299.99619
299.99619
299.99619
299.9962
299.99822
299.9982
299.9982
299.9982
299.9982
299.9982
299.9982
299.9982
299.9982
299.9982
299.9982
299.9982
299.9982
299.9982
299.9982
299.9982
299.9982
299.9982
299.9982
299.99822
299.99924
299.99922
299.99922
299.99922
299.99922
299.99922
299.99922
299.99922
299.99922
299.99922
299.99922
299.99922
299.99922
299.99922
299.99922
299.99922
299.99922
299.99922
299.99922
299.99924
299.99972
299.99969
299.9997
299.9997
299.9997
299.9997
299.9997
299.9997
299.9997
299.9997
299.9997
299.9997
299.9997
299.9997
299.9997
299.9997
299.9997
299.9997
299.99969
299.99972
299.99992
299.9999
299.9999
299.9999
299.9999
299.9999
299.9999
299.9999
299.9999
299.9999
299.9999
299.9999
299.9999
299.9999
299.9999
299.9999
299.9999
299.9999
299.9999
299.99992
299.99999
299.99997
299.99998
299.99998
299.99998
299.99998
299.99998
299.99998
299.99998
299.99998
299.99998
299.99998
299.99998
299.99998
299.99998
299.99998
299.99998
299.99998
299.99997
299.99999
300.00002
300
300
300
300
300
300
300
300
300
300
300
300
300
300
300
300
300
300
300.00002
300.00002
300.00001
300.00001
300.00001
300.00001
300.00001
300.00001
300.00001
300.00001
300.00001
300.00001
300.00001
300.00001
300.00001
300.00001
300.00001
300.00001
300.00001
300.00001
300.00002
300.00002
300.00001
300.00001
300.00001
300.00001
300.00001
300.00001
300.00001
300.00001
300.00001
300.00001
300.00001
300.00001
300.00001
300.00001
300.00001
300.00001
300.00001
300.00001
300.00002
300.00001
300
300.00001
300.00001
300.00001
300.00001
300.00001
300.00001
300.00001
300.00001
300.00001
300.00001
300.00001
300.00001
300.00001
300.00001
300.00001
300.00001
300
300.00001
300.00001
300
300
300
300
300
300
300
300
300
300
300
300
300
300
300
300
300
300
300.00001
300.00001
300
300
300
300
300
300
300
300
300
300
300
300
300
300
300
300
300
300
300.00001
299.40373
299.40214
299.40213
299.40213
299.40214
299.40214
299.40214
299.40214
299.40214
299.40214
299.40214
299.40214
299.40214
299.40214
299.40214
299.40214
299.40214
299.40214
299.40215
299.40374
299.38386
299.38226
299.38226
299.38226
299.38226
299.38226
299.38226
299.38226
299.38226
299.38227
299.38227
299.38227
299.38227
299.38227
299.38227
299.38227
299.38227
299.38227
299.38227
299.38388
299.364
299.36239
299.36239
299.36239
299.36239
299.36239
299.36239
299.36239
299.36239
299.36239
299.36239
299.36239
299.36239
299.3624
299.3624
299.3624
299.3624
299.3624
299.3624
299.36401
299.34414
299.34252
299.34252
299.34252
299.34252
299.34252
299.34252
299.34252
299.34252
299.34252
299.34252
299.34252
299.34252
299.34252
299.34252
299.34252
299.34253
299.34253
299.34253
299.34415
299.32428
299.32265
299.32265
299.32265
299.32265
299.32265
299.32265
299.32265
299.32265
299.32265
299.32265
299.32265
299.32265
299.32265
299.32265
299.32265
299.32265
299.32265
299.32266
299.32429
299.30442
299.30278
299.30277
299.30278
299.30278
299.30278
299.30278
299.30278
299.30278
299.30278
299.30278
299.30278
299.30278
299.30278
299.30278
299.30278
299.30278
299.30278
299.30278
299.30443
299.28456
299.28291
299.2829
299.28291
299.28291
299.28291
299.28291
299.28291
299.28291
299.28291
299.28291
299.28291
299.28291
299.28291
299.28291
299.28291
299.28291
299.28291
299.28291
299.28457
299.2647
299.26304
299.26304
299.26304
299.26304
299.26304
299.26304
299.26304
299.26304
299.26304
299.26304
299.26304
299.26304
299.26304
299.26304
299.26304
299.26304
299.26304
299.26304
299.26471
299.24484
299.24317
299.24317
299.24317
299.24317
299.24317
299.24317
299.24317
299.24317
299.24317
299.24317
299.24317
299.24317
299.24317
299.24317
299.24317
299.24317
299.24317
299.24317
299.24485
299.22499
299.2233
299.2233
299.2233
299.2233
299.2233
299.2233
299.2233
299.2233
299.2233
299.2233
299.2233
299.2233
299.2233
299.2233
299.2233
299.2233
299.2233
299.2233
299.22499
299.20513
299.20343
299.20343
299.20343
299.20343
299.20343
299.20343
299.20343
299.20343
299.20343
299.20343
299.20343
299.20343
299.20343
299.20343
299.20343
299.20343
299.20343
299.20344
299.20514
299.18527
299.18356
299.18356
299.18356
299.18356
299.18356
299.18356
299.18356
299.18356
299.18356
299.18356
299.18356
299.18356
299.18356
299.18357
299.18357
299.18357
299.18357
299.18357
299.18528
299.16542
299.16369
299.16369
299.16369
299.16369
299.16369
299.16369
299.16369
299.16369
299.1637
299.1637
299.1637
299.1637
299.1637
299.1637
299.1637
299.1637
299.1637
299.1637
299.16542
299.14556
299.14383
299.14383
299.14383
299.14383
299.14383
299.14383
299.14383
299.14383
299.14383
299.14383
299.14383
299.14383
299.14383
299.14383
299.14383
299.14383
299.14383
299.14383
299.14556
299.1257
299.12396
299.12396
299.12396
299.12396
299.12396
299.12396
299.12396
299.12396
299.12396
299.12396
299.12396
299.12396
299.12396
299.12396