/*--------------------------------*- C++ -*----------------------------------*\
| =========                 |                                                 |
| \\      /  F ield         | OpenFOAM: The Open Source CFD Toolbox           |
|  \\    /   O peration     | Version:  2406                                  |
|   \\  /    A nd           | Website:  www.openfoam.com                      |
|    \\/     M anipulation  |                                                 |
\*---------------------------------------------------------------------------*/
FoamFile
{
    version     2.0;
    format      ascii;
    arch        "LSB;label=32;scalar=64";
    class       volVectorField;
    location    "0.00456296/fluid";
    object      U;
}
// * * * * * * * * * * * * * * * * * * * * * * * * * * * * * * * * * * * * * //

dimensions      [0 1 -1 0 0 0 0];

internalField   nonuniform List<vector> 
53600
(
(0.00073677448 9.6472463e-07 9.9301797)
(0.00073967042 -4.8321423e-07 9.9689755)
(0.00074001552 2.5772433e-07 9.9690141)
(0.0007396454 -1.7546156e-07 9.9690141)
(0.00073971203 3.8500188e-08 9.9690141)
(0.00073960006 -1.157805e-07 9.9690141)
(0.00073960619 -6.0362032e-08 9.9690141)
(0.00073957327 -1.2047145e-07 9.9690141)
(0.00073957115 -1.1516136e-07 9.9690141)
(0.00073956417 -1.3981862e-07 9.9690141)
(0.00073956461 -1.4503176e-07 9.9690141)
(0.00073957237 -1.5827804e-07 9.969014)
(0.00073957557 -1.4992965e-07 9.969014)
(0.00073960979 -1.7880011e-07 9.969014)
(0.00073960495 -1.1173506e-07 9.969014)
(0.00073971881 -2.2596481e-07 9.969014)
(0.00073965428 2.1089577e-08 9.969014)
(0.00074002847 -3.8519328e-07 9.9690139)
(0.00073967798 4.1354481e-07 9.9689753)
(0.00073678971 -9.9576131e-07 9.9301795)
(0.00072006259 9.4563683e-07 9.9301388)
(0.00072297369 -4.7786941e-07 9.9689346)
(0.00072332965 2.6270305e-07 9.9689732)
(0.00072294917 -1.7090937e-07 9.9689733)
(0.00072301995 4.7443335e-08 9.9689733)
(0.00072290372 -1.0703402e-07 9.9689733)
(0.0007229109 -4.7823096e-08 9.9689733)
(0.00072287663 -1.0762315e-07 9.9689732)
(0.00072287447 -9.9870797e-08 9.9689732)
(0.00072286713 -1.2422804e-07 9.9689732)
(0.00072286754 -1.2796113e-07 9.9689732)
(0.00072287553 -1.4183503e-07 9.9689732)
(0.00072287872 -1.3220231e-07 9.9689732)
(0.00072291412 -1.6359407e-07 9.9689732)
(0.00072290856 -9.4900522e-08 9.9689731)
(0.00072302603 -2.1371585e-07 9.9689731)
(0.00072295768 3.4692557e-08 9.9689731)
(0.0007233423 -3.7723243e-07 9.9689731)
(0.0007229803 4.1574339e-07 9.9689345)
(0.00072007698 -9.7279469e-07 9.9301386)
(0.00070612666 9.292501e-07 9.9301156)
(0.00070905034 -4.7431682e-07 9.9689115)
(0.00070941468 2.6557369e-07 9.9689501)
(0.00070902566 -1.6662667e-07 9.9689501)
(0.00070909972 5.4709479e-08 9.9689501)
(0.00070898012 -9.9329054e-08 9.9689501)
(0.00070898819 -3.7029592e-08 9.9689501)
(0.00070895293 -9.6364696e-08 9.9689501)
(0.00070895073 -8.6554531e-08 9.9689501)
(0.0007089431 -1.1055991e-07 9.9689501)
(0.00070894349 -1.1303266e-07 9.9689501)
(0.00070895161 -1.2734643e-07 9.96895)
(0.00070895482 -1.1672629e-07 9.96895)
(0.00070899097 -1.5000368e-07 9.96895)
(0.00070898491 -8.036358e-08 9.96895)
(0.00070910501 -2.0242641e-07 9.96895)
(0.00070903372 4.6210348e-08 9.96895)
(0.00070942683 -3.6859564e-07 9.96895)
(0.00070905608 4.1888925e-07 9.9689113)
(0.00070614027 -9.53427e-07 9.9301154)
(0.00069358733 9.1514191e-07 9.930096)
(0.00069652412 -4.7207422e-07 9.9688918)
(0.0006968953 2.673598e-07 9.9689305)
(0.00069649924 -1.6303985e-07 9.9689305)
(0.0006965758 6.0687438e-08 9.9689305)
(0.00069645355 -9.2792828e-08 9.9689305)
(0.00069646241 -2.764456e-08 9.9689305)
(0.00069642621 -8.6568805e-08 9.9689305)
(0.00069642402 -7.492818e-08 9.9689305)
(0.00069641619 -9.8611297e-08 9.9689305)
(0.00069641656 -9.9898984e-08 9.9689304)
(0.00069642473 -1.1458728e-07 9.9689304)
(0.00069642799 -1.0303876e-07 9.9689304)
(0.00069646461 -1.3790478e-07 9.9689304)
(0.0006964583 -6.7514662e-08 9.9689304)
(0.00069658023 -1.9217294e-07 9.9689304)
(0.00069650682 5.6306831e-08 9.9689304)
(0.0006969066 -3.5982566e-07 9.9689304)
(0.00069652932 4.2291416e-07 9.9688917)
(0.00069360002 -9.3708849e-07 9.9300958)
(0.00068198063 9.0219971e-07 9.9300791)
(0.00068493239 -4.7079895e-07 9.968875)
(0.00068530892 2.6846788e-07 9.9689136)
(0.00068490755 -1.6021451e-07 9.9689137)
(0.00068498575 6.5603175e-08 9.9689137)
(0.00068486162 -8.7337453e-08 9.9689137)
(0.00068487102 -1.9514529e-08 9.9689136)
(0.00068483416 -7.8097219e-08 9.9689136)
(0.00068483191 -6.474574e-08 9.9689136)
(0.00068482395 -8.8156267e-08 9.9689136)
(0.00068482429 -8.8303409e-08 9.9689136)
(0.00068483248 -1.0331853e-07 9.9689136)
(0.00068483584 -9.0857617e-08 9.9689136)
(0.00068487265 -1.2706783e-07 9.9689136)
(0.00068486638 -5.598109e-08 9.9689136)
(0.00068498928 -1.828915e-07 9.9689136)
(0.00068491464 6.5468338e-08 9.9689136)
(0.00068531925 -3.5147926e-07 9.9689135)
(0.00068493715 4.2733647e-07 9.9688749)
(0.0006819925 -9.2228617e-07 9.930079)
(0.00067118755 8.9065483e-07 9.9300646)
(0.00067415781 -4.7000946e-07 9.9688605)
(0.00067453748 2.6917348e-07 9.9688991)
(0.00067413339 -1.5802602e-07 9.9688991)
(0.00067421204 6.9562933e-08 9.9688991)
(0.000674087 -8.2831386e-08 9.9688991)
(0.00067409661 -1.2510784e-08 9.9688991)
(0.00067405941 -7.0783119e-08 9.9688991)
(0.000674057 -5.5836882e-08 9.9688991)
(0.000674049 -7.8989768e-08 9.9688991)
(0.00067404933 -7.8035357e-08 9.9688991)
(0.00067405748 -9.3326247e-08 9.9688991)
(0.00067406101 -7.9969103e-08 9.9688991)
(0.00067409775 -1.1725486e-07 9.9688991)
(0.00067409184 -4.5544723e-08 9.9688991)
(0.00067421467 -1.7434079e-07 9.9688991)
(0.0006741401 7.3831625e-08 9.9688991)
(0.00067454678 -3.4372524e-07 9.968899)
(0.00067416229 4.3170165e-07 9.9688604)
(0.00067119855 -9.09228e-07 9.9300645)
(0.00066123507 8.8119787e-07 9.930052)
(0.00066422959 -4.6906681e-07 9.9688479)
(0.00066460862 2.6968543e-07 9.9688865)
(0.00066420581 -1.563434e-07 9.9688866)
(0.00066428322 7.253473e-08 9.9688866)
(0.00066415855 -7.9130231e-08 9.9688866)
(0.00066416784 -6.5428103e-09 9.9688865)
(0.00066413066 -6.4474592e-08 9.9688865)
(0.00066412812 -4.8070427e-08 9.9688865)
(0.0006641201 -7.0926799e-08 9.9688865)
(0.00066412042 -6.8911703e-08 9.9688865)
(0.00066412848 -8.4426227e-08 9.9688865)
(0.00066413229 -7.0193697e-08 9.9688865)
(0.0006641686 -1.0826704e-07 9.9688865)
(0.00066416355 -3.6045031e-08 9.9688865)
(0.00066428502 -1.6629205e-07 9.9688865)
(0.00066421221 8.1611577e-08 9.9688865)
(0.00066461699 -3.3675143e-07 9.9688865)
(0.00066423377 4.3534315e-07 9.9688478)
(0.00066124527 -8.9828359e-07 9.9300519)
(0.00065222183 8.7384315e-07 9.9300411)
(0.00065525199 -4.6848779e-07 9.968837)
(0.00065562369 2.6982564e-07 9.9688756)
(0.00065522813 -1.5509211e-07 9.9688756)
(0.00065530177 7.4432123e-08 9.9688756)
(0.00065517912 -7.6013829e-08 9.9688756)
(0.00065518735 -1.5314802e-09 9.9688756)
(0.00065515065 -5.8952028e-08 9.9688756)
(0.00065514782 -4.1275375e-08 9.9688756)
(0.00065513988 -6.3822598e-08 9.9688756)
(0.00065514018 -6.0788784e-08 9.9688756)
(0.00065514811 -7.6477713e-08 9.9688756)
(0.00065515234 -6.1428387e-08 9.9688756)
(0.00065518786 -9.9983099e-08 9.9688756)
(0.00065518434 -2.7460986e-08 9.9688756)
(0.00065530289 -1.5840783e-07 9.9688756)
(0.00065523433 8.870085e-08 9.9688756)
(0.0006556312 -3.3029323e-07 9.9688756)
(0.00065525595 4.3873249e-07 9.9688369)
(0.00065223123 -8.8968522e-07 9.930041)
(0.00064433436 8.7005286e-07 9.9300316)
(0.0006474351 -4.6920586e-07 9.9688275)
(0.00064778756 2.6832215e-07 9.9688661)
(0.00064740768 -1.5375653e-07 9.9688661)
(0.00064747277 7.5168655e-08 9.9688661)
(0.00064735431 -7.2994876e-08 9.9688661)
(0.00064735997 2.5755779e-09 9.9688661)
(0.00064732429 -5.3985207e-08 9.9688661)
(0.0006473208 -3.5316636e-08 9.9688661)
(0.00064731307 -5.7540413e-08 9.9688661)
(0.00064731333 -5.3559601e-08 9.9688661)
(0.00064732108 -6.9398791e-08 9.9688661)
(0.00064732597 -5.366637e-08 9.9688661)
(0.0006473604 -9.2383533e-08 9.9688661)
(0.00064735958 -1.9977563e-08 9.9688661)
(0.00064747343 -1.5035464e-07 9.9688661)
(0.0006474136 9.4818395e-08 9.9688661)
(0.00064779421 -3.228957e-07 9.9688661)
(0.00064743867 4.4296872e-07 9.9688274)
(0.00064434278 -8.8454502e-07 9.9300315)
(0.00063784093 8.7330725e-07 9.9300232)
(0.0006410673 -4.7176621e-07 9.9688191)
(0.00064138309 2.6308879e-07 9.9688577)
(0.00064102722 -1.5108038e-07 9.9688577)
(0.00064107741 7.4816177e-08 9.9688578)
(0.00064096569 -6.9332379e-08 9.9688577)
(0.00064096701 5.820233e-09 9.9688577)
(0.00064093285 -4.9386923e-08 9.9688577)
(0.0006409283 -3.0058771e-08 9.9688577)
(0.00064092087 -5.1967148e-08 9.9688577)
(0.00064092107 -4.7141776e-08 9.9688577)
(0.00064092858 -6.3152174e-08 9.9688577)
(0.00064093434 -4.6915876e-08 9.9688577)
(0.00064096735 -8.5554528e-08 9.9688577)
(0.0006409704 -1.3996879e-08 9.9688577)
(0.0006410778 -1.4214239e-07 9.9688577)
(0.00064103223 9.8333118e-08 9.9688577)
(0.00064138857 -3.1200926e-07 9.9688577)
(0.00064107023 4.4846361e-07 9.968819)
(0.00063784784 -8.8688395e-07 9.9300231)
(0.0006328309 8.8164173e-07 9.9300159)
(0.00063613788 -4.7794267e-07 9.9688118)
(0.00063641829 2.5422758e-07 9.9688504)
(0.00063608668 -1.4621687e-07 9.9688504)
(0.00063612561 7.382726e-08 9.9688504)
(0.00063602108 -6.5056242e-08 9.9688504)
(0.00063601944 8.4337966e-09 9.9688504)
(0.00063598686 -4.5175519e-08 9.9688504)
(0.00063598176 -2.5373059e-08 9.9688504)
(0.00063597455 -4.7026941e-08 9.9688504)
(0.00063597471 -4.1411665e-08 9.9688504)
(0.00063598194 -5.7659338e-08 9.9688504)
(0.00063598809 -4.0955002e-08 9.9688504)
(0.00063601958 -7.9525504e-08 9.9688504)
(0.00063602492 -9.2850745e-09 9.9688504)
(0.00063612585 -1.3442584e-07 9.9688504)
(0.00063609024 9.8637704e-08 9.9688504)
(0.00063642235 -2.9697967e-07 9.9688504)
(0.00063614021 4.5771389e-07 9.9688117)
(0.00063283634 -8.942234e-07 9.9300158)
(0.0006290002 8.8189703e-07 9.9300096)
(0.00063234997 -4.8172506e-07 9.9688055)
(0.00063261839 2.5057308e-07 9.9688441)
(0.00063229788 -1.4478692e-07 9.9688442)
(0.00063233226 7.3513367e-08 9.9688442)
(0.00063223133 -6.2369486e-08 9.9688442)
(0.0006322286 1.0793274e-08 9.9688442)
(0.00063219678 -4.1783021e-08 9.9688442)
(0.00063219159 -2.1165901e-08 9.9688442)
(0.00063218445 -4.270246e-08 9.9688442)
(0.00063218465 -3.6100968e-08 9.9688441)
(0.00063219176 -5.2679777e-08 9.9688441)
(0.000632198 -3.5092338e-08 9.9688441)
(0.00063222875 -7.405859e-08 9.9688441)
(0.0006322349 -3.8100686e-09 9.9688441)
(0.00063233267 -1.2787068e-07 9.9688441)
(0.00063230086 1.019942e-07 9.9688441)
(0.00063262191 -2.8818886e-07 9.9688441)
(0.00063235222 4.6375624e-07 9.9688055)
(0.00062900495 -8.9355458e-07 9.9300096)
(0.00062607276 8.7953916e-07 9.9300043)
(0.00062944889 -4.8468239e-07 9.9688001)
(0.00062971285 2.4834341e-07 9.9688388)
(0.00062939799 -1.446848e-07 9.9688388)
(0.00062943062 7.3483422e-08 9.9688388)
(0.00062933166 -6.0620996e-08 9.9688388)
(0.00062932863 1.2869186e-08 9.9688388)
(0.00062929721 -3.900985e-08 9.9688388)
(0.00062929211 -1.7410373e-08 9.9688388)
(0.000629285 -3.8900572e-08 9.9688388)
(0.00062928524 -3.1206858e-08 9.9688388)
(0.00062929229 -4.8164692e-08 9.9688388)
(0.00062929853 -2.9449538e-08 9.9688388)
(0.00062932887 -6.906575e-08 9.9688388)
(0.00062933517 1.9314325e-09 9.9688388)
(0.00062943135 -1.2216306e-07 9.9688388)
(0.00062940068 1.0645355e-07 9.9688388)
(0.00062971615 -2.8122821e-07 9.9688388)
(0.00062945108 4.6898473e-07 9.9688001)
(0.0006260772 -8.8975718e-07 9.9300042)
(0.00062383794 8.7630481e-07 9.9299997)
(0.00062723152 -4.8737769e-07 9.9687956)
(0.00062749379 2.4647183e-07 9.9688342)
(0.0006271819 -1.45258e-07 9.9688342)
(0.00062721396 7.3492838e-08 9.9688342)
(0.00062711612 -5.9473748e-08 9.9688342)
(0.00062711312 1.4652125e-08 9.9688342)
(0.0006270819 -3.6721982e-08 9.9688342)
(0.00062707696 -1.4053541e-08 9.9688342)
(0.00062706986 -3.5542397e-08 9.9688342)
(0.00062707014 -2.6692161e-08 9.9688342)
(0.00062707717 -4.4065141e-08 9.9688342)
(0.00062708333 -2.4059029e-08 9.9688342)
(0.00062711348 -6.4473273e-08 9.9688342)
(0.00062711963 7.6997005e-09 9.9688342)
(0.0006272151 -1.1707588e-07 9.9688342)
(0.00062718434 1.10906e-07 9.9688342)
(0.00062749694 -2.7508702e-07 9.9688342)
(0.00062723381 4.7334309e-07 9.9687956)
(0.00062384208 -8.8547906e-07 9.9299996)
(0.00062213206 8.7274572e-07 9.9299958)
(0.00062553773 -4.9007987e-07 9.9687917)
(0.0006257994 2.4463829e-07 9.9688303)
(0.00062548911 -1.4625072e-07 9.9688303)
(0.00062552107 7.3438972e-08 9.9688303)
(0.00062542391 -5.8737168e-08 9.9688303)
(0.00062542106 1.6151285e-08 9.9688303)
(0.00062538993 -3.4827158e-08 9.9688303)
(0.00062538515 -1.1047498e-08 9.9688303)
(0.00062537805 -3.2568094e-08 9.9688303)
(0.00062537836 -2.2521292e-08 9.9688303)
(0.00062538539 -4.0340211e-08 9.9688303)
(0.00062539145 -1.8931731e-08 9.9688303)
(0.00062542154 -6.0214378e-08 9.9688303)
(0.0006254274 1.3375855e-08 9.9688303)
(0.00062552265 -1.1239056e-07 9.9688303)
(0.00062549125 1.1556799e-07 9.9688303)
(0.00062580244 -2.6913409e-07 9.9688303)
(0.00062553995 4.7785585e-07 9.9687917)
(0.00062213599 -8.8043375e-07 9.9299957)
(0.00062082851 8.6915021e-07 9.9299924)
(0.00062424286 -4.9278796e-07 9.9687883)
(0.00062450435 2.4279061e-07 9.968827)
(0.00062419496 -1.4748394e-07 9.968827)
(0.00062422699 7.3253907e-08 9.968827)
(0.00062413024 -5.8329811e-08 9.968827)
(0.00062412758 1.7424035e-08 9.968827)
(0.00062409647 -3.3245747e-08 9.968827)
(0.00062409186 -8.3416251e-09 9.968827)
(0.00062408475 -2.9921757e-08 9.968827)
(0.00062408509 -1.8650381e-08 9.968827)
(0.00062409213 -3.6944903e-08 9.968827)
(0.00062409807 -1.4064923e-08 9.968827)
(0.00062412816 -5.6255155e-08 9.968827)
(0.00062413368 1.8741446e-08 9.968827)
(0.00062422887 -1.0783603e-07 9.968827)
(0.00062419689 1.2009321e-07 9.968827)
(0.00062450722 -2.6366524e-07 9.968827)
(0.00062424508 4.8185292e-07 9.9687883)
(0.00062083212 -8.7579072e-07 9.9299924)
(0.00061983008 8.6554661e-07 9.9299896)
(0.00062325078 -4.9559527e-07 9.9687855)
(0.00062351224 2.4088188e-07 9.9688241)
(0.00062320339 -1.4889605e-07 9.9688241)
(0.00062323555 7.2929656e-08 9.9688241)
(0.00062313904 -5.8183333e-08 9.9688241)
(0.00062313656 1.8494061e-08 9.9688241)
(0.00062310545 -3.1927387e-08 9.9688241)
(0.00062310097 -5.8981426e-09 9.9688241)
(0.00062309386 -2.7562557e-08 9.9688241)
(0.00062309421 -1.5044407e-08 9.9688241)
(0.00062310128 -3.3844342e-08 9.9688241)
(0.00062310708 -9.4472273e-09 9.9688241)
(0.00062313723 -5.2562786e-08 9.9688241)
(0.00062314238 2.3721924e-08 9.9688241)
(0.00062323748 -1.0323919e-07 9.9688241)
(0.00062320523 1.2494824e-07 9.9688241)
(0.00062351496 -2.5843542e-07 9.9688241)
(0.00062325284 4.8611623e-07 9.9687855)
(0.00061983341 -8.70758e-07 9.9299896)
(0.0006190627 8.6201719e-07 9.9299871)
(0.00062248814 -4.9842951e-07 9.968783)
(0.00062274963 2.3893302e-07 9.9688217)
(0.0006224411 -1.5043741e-07 9.9688217)
(0.00062247339 7.2481024e-08 9.9688217)
(0.00062237702 -5.8245578e-08 9.9688217)
(0.00062237472 1.9389658e-08 9.9688217)
(0.00062234358 -3.0826142e-08 9.9688217)
(0.00062233923 -3.6781223e-09 9.9688217)
(0.0006223321 -2.5447932e-08 9.9688217)
(0.00062233245 -1.166337e-08 9.9688217)
(0.00062233956 -3.0998422e-08 9.9688217)
(0.0006223452 -5.0468587e-09 9.9688217)
(0.00062237547 -4.9100878e-08 9.9688217)
(0.00062238021 2.8328836e-08 9.9688217)
(0.00062247519 -9.8591263e-08 9.9688217)
(0.00062244299 1.2970342e-07 9.9688217)
(0.00062275213 -2.5363879e-07 9.9688217)
(0.00062249013 4.8996787e-07 9.968783)
(0.00061906564 -8.6621498e-07 9.9299871)
(0.00061847018 8.5851791e-07 9.929985)
(0.0006218992 -5.0134681e-07 9.968781)
(0.00062216073 2.3692725e-07 9.9688196)
(0.00062185238 -1.5209574e-07 9.9688196)
(0.0006218848 7.1925769e-08 9.9688196)
(0.00062178851 -5.847743e-08 9.9688196)
(0.00062178636 2.0126645e-08 9.9688196)
(0.00062175518 -2.9909702e-08 9.9688196)
(0.00062175093 -1.6545939e-09 9.9688196)
(0.0006217438 -2.3547251e-08 9.9688196)
(0.00062174414 -8.4780056e-09 9.9688196)
(0.0006217513 -2.83777e-08 9.9688196)
(0.00062175675 -8.2951725e-10 9.9688196)
(0.00062178719 -4.5834833e-08 9.9688196)
(0.00062179149 3.2687157e-08 9.9688196)
(0.00062188636 -9.398555e-08 9.9688196)
(0.00062185435 1.3459722e-07 9.9688196)
(0.000622163 -2.4891802e-07 9.9688196)
(0.00062190094 4.9407856e-07 9.968781)
(0.00061847276 -8.6136487e-07 9.929985)
(0.00061801023 8.5509483e-07 9.9299832)
(0.00062144201 -5.0427348e-07 9.9687792)
(0.00062170358 2.3489008e-07 9.9688178)
(0.00062139533 -1.5385609e-07 9.9688178)
(0.00062142786 7.1298909e-08 9.9688178)
(0.00062133162 -5.8833659e-08 9.9688178)
(0.00062132958 2.0717467e-08 9.9688178)
(0.00062129837 -2.9146729e-08 9.9688178)
(0.00062129421 2.0152899e-10 9.9688178)
(0.00062128707 -2.1826749e-08 9.9688178)
(0.00062128738 -5.4549296e-09 9.9688178)
(0.00062129461 -2.5946221e-08 9.9688178)
(0.00062129986 3.2490824e-09 9.9688178)
(0.00062133053 -4.2749002e-08 9.9688178)
(0.00062133433 3.6863031e-08 9.9688178)
(0.00062142917 -8.948186e-08 9.9688178)
(0.00062139735 1.3921027e-07 9.9688178)
(0.00062170555 -2.4439658e-07 9.9688178)
(0.00062144359 4.9784387e-07 9.9687792)
(0.00061801235 -8.5694321e-07 9.9299832)
(0.00061765107 8.5170021e-07 9.9299817)
(0.00062108496 -5.072544e-07 9.9687776)
(0.00062134659 2.3281013e-07 9.9688162)
(0.00062103836 -1.5570983e-07 9.9688163)
(0.00062107098 7.0611222e-08 9.9688163)
(0.0006209748 -5.9296117e-08 9.9688163)
(0.00062097284 2.1180215e-08 9.9688163)
(0.0006209416 -2.8514497e-08 9.9688163)
(0.00062093749 1.9091161e-09 9.9688163)
(0.00062093035 -2.0264356e-08 9.9688163)
(0.00062093063 -2.5744917e-09 9.9688163)
(0.00062093795 -2.3677228e-08 9.9688163)
(0.00062094296 7.2065296e-09 9.9688163)
(0.00062097393 -3.9833651e-08 9.9688163)
(0.00062097714 4.0909094e-08 9.9688163)
(0.00062107207 -8.5091053e-08 9.9688163)
(0.00062104036 1.4384491e-07 9.9688163)
(0.00062134827 -2.3984437e-07 9.9688162)
(0.00062108623 5.0180943e-07 9.9687776)
(0.00061765276 -8.5225749e-07 9.9299816)
(0.00061736884 8.483697e-07 9.9299803)
(0.00062080441 -5.1022644e-07 9.9687763)
(0.0006210661 2.3071137e-07 9.9688149)
(0.00062075786 -1.5763184e-07 9.9688149)
(0.00062079054 6.9873483e-08 9.968815)
(0.00062069442 -5.985014e-08 9.968815)
(0.00062069251 2.1540607e-08 9.968815)
(0.00062066124 -2.7987737e-08 9.968815)
(0.00062065719 3.489988e-09 9.968815)
(0.00062065004 -1.8836059e-08 9.968815)
(0.00062065027 1.8156749e-10 9.968815)
(0.00062065769 -2.1553687e-08 9.9688149)
(0.00062066245 1.0986659e-08 9.968815)
(0.00062069372 -3.6976986e-08 9.9688149)
(0.00062069639 4.4928494e-08 9.9688149)
(0.00062079145 -8.0873047e-08 9.9688149)
(0.00062075977 1.482157e-07 9.9688149)
(0.00062106745 -2.3543959e-07 9.9688149)
(0.00062080543 5.0546109e-07 9.9687763)
(0.00061737003 -8.4793073e-07 9.9299803)
(0.00061714564 8.4506238e-07 9.9299792)
(0.00062058252 -5.1322824e-07 9.9687752)
(0.00062084428 2.2858371e-07 9.9688138)
(0.00062053597 -1.5961586e-07 9.9688138)
(0.00062056872 6.9092613e-08 9.9688138)
(0.00062047265 -6.0484417e-08 9.9688138)
(0.00062047077 2.1813527e-08 9.9688138)
(0.00062043948 -2.7549852e-08 9.9688138)
(0.00062043547 4.9573785e-09 9.9688138)
(0.00062042831 -1.7525096e-08 9.9688138)
(0.00062042849 2.8254415e-09 9.9688138)
(0.00062043603 -1.9581781e-08 9.9688138)
(0.00062044047 1.4485099e-08 9.9688138)
(0.00062047196 -3.4028495e-08 9.9688138)
(0.00062047435 4.9070307e-08 9.9688138)
(0.0006205695 -7.6928961e-08 9.9688138)
(0.00062053776 1.5258526e-07 9.9688138)
(0.00062084532 -2.3102261e-07 9.9688138)
(0.00062058317 5.0925743e-07 9.9687752)
(0.00061714635 -8.433877e-07 9.9299792)
(0.00061696799 8.41808e-07 9.9299782)
(0.00062040593 -5.1620924e-07 9.9687742)
(0.00062066779 2.2644649e-07 9.9688128)
(0.00062035938 -1.6164593e-07 9.9688128)
(0.00062039219 6.8281646e-08 9.9688128)
(0.00062029617 -6.118288e-08 9.9688128)
(0.0006202943 2.2015369e-08 9.9688128)
(0.000620263 -2.7180635e-08 9.9688128)
(0.00062025901 6.327591e-09 9.9688128)
(0.00062025185 -1.6304619e-08 9.9688128)
(0.00062025196 5.3806709e-09 9.9688128)
(0.00062025964 -1.7743829e-08 9.9688128)
(0.00062026371 1.7759363e-08 9.9688128)
(0.00062029538 -3.1022261e-08 9.9688128)
(0.00062029765 5.3267799e-08 9.9688128)
(0.00062039286 -7.3193975e-08 9.9688128)
(0.00062036101 1.5674232e-07 9.9688128)
(0.00062066849 -2.2674527e-07 9.9688128)
(0.00062040627 5.1278649e-07 9.9687742)
(0.00061696818 -8.3914748e-07 9.9299782)
(0.00061682576 8.3857393e-07 9.9299773)
(0.00062026454 -5.1920293e-07 9.9687734)
(0.0006205265 2.2429161e-07 9.968812)
(0.00062021796 -1.6371952e-07 9.968812)
(0.00062025084 6.7447652e-08 9.968812)
(0.00062015486 -6.1934546e-08 9.968812)
(0.00062015298 2.2154656e-08 9.968812)
(0.00062012168 -2.6867638e-08 9.968812)
(0.00062011771 7.6050509e-09 9.968812)
(0.00062011053 -1.5161527e-08 9.968812)
(0.00062011059 7.8236451e-09 9.968812)
(0.00062011839 -1.5942727e-08 9.968812)
(0.00062012214 2.0942907e-08 9.968812)
(0.00062015395 -2.8085591e-08 9.968812)
(0.00062015614 5.7374783e-08 9.968812)
(0.00062025139 -6.9619924e-08 9.968812)
(0.00062021939 1.6096771e-07 9.968812)
(0.00062052689 -2.2247015e-07 9.968812)
(0.00062026448 5.1643745e-07 9.9687734)
(0.00061682544 -8.3474111e-07 9.9299773)
(0.00061671124 8.3538564e-07 9.9299766)
(0.00062015071 -5.2216983e-07 9.9687726)
(0.0006204128 2.2213577e-07 9.9688113)
(0.00062010409 -1.6582551e-07 9.9688113)
(0.00062013704 6.6602888e-08 9.9688113)
(0.00062004112 -6.272362e-08 9.9688113)
(0.00062003921 2.2242613e-08 9.9688113)
(0.00062000792 -2.6592715e-08 9.9688113)
(0.00062000396 8.7977399e-09 9.9688113)
(0.00061999675 -1.4091956e-08 9.9688113)
(0.00061999675 1.0102934e-08 9.9688113)
(0.00062000459 -1.3971865e-08 9.9688113)
(0.00062000828 2.4072574e-08 9.9688113)
(0.00062004001 -2.5288087e-08 9.9688113)
(0.0006200423 6.1299988e-08 9.9688113)
(0.00062013734 -6.6311664e-08 9.9688113)
(0.0006201053 1.6519244e-07 9.9688113)
(0.00062041284 -2.1830265e-07 9.9688113)
(0.0006201503 5.198866e-07 9.9687726)
(0.00061671037 -8.305958e-07 9.9299766)
(0.00061661855 8.3221804e-07 9.9299759)
(0.00062005858 -5.2513892e-07 9.968772)
(0.00062032079 2.1997388e-07 9.9688106)
(0.0006200119 -1.6796416e-07 9.9688107)
(0.00062004492 6.575442e-08 9.9688107)
(0.00061994906 -6.3538272e-08 9.9688107)
(0.00061994711 2.2284765e-08 9.9688107)
(0.00061991583 -2.6338588e-08 9.9688107)
(0.00061991188 9.9209167e-09 9.9688107)
(0.00061990464 -1.3051103e-08 9.9688107)
(0.0006199046 1.2256285e-08 9.9688107)
(0.00061991241 -1.18767e-08 9.9688107)
(0.00061991626 2.702818e-08 9.9688107)
(0.00061994762 -2.2626009e-08 9.9688107)
(0.00061995024 6.5118773e-08 9.9688107)
(0.00062004484 -6.325351e-08 9.9688107)
(0.00062001285 1.6960038e-07 9.9688107)
(0.00062032051 -2.141338e-07 9.9688106)
(0.00062005774 5.234501e-07 9.968772)
(0.00061661714 -8.2633809e-07 9.9299759)
(0.00061654317 8.2909328e-07 9.9299754)
(0.00061998367 -5.2808076e-07 9.9687715)
(0.00062024604 2.1782175e-07 9.9688101)
(0.00061993694 -1.7013036e-07 9.9688101)
(0.00061997001 6.4915776e-08 9.9688101)
(0.00061987424 -6.4360451e-08 9.9688101)
(0.00061987222 2.2286234e-08 9.9688101)
(0.00061984098 -2.6083585e-08 9.9688101)
(0.00061983704 1.0986974e-08 9.9688101)
(0.00061982974 -1.1979737e-08 9.9688101)
(0.00061982974 1.4265494e-08 9.9688101)
(0.00061983739 -9.8089032e-09 9.9688101)
(0.00061984156 2.9902801e-08 9.9688101)
(0.00061987238 -1.9973551e-08 9.9688101)
(0.00061987553 6.8751314e-08 9.9688101)
(0.00061996941 -6.0442904e-08 9.9688101)
(0.00061993761 1.7404374e-07 9.9688101)
(0.00062024538 -2.1005461e-07 9.9688101)
(0.00061998246 5.2686547e-07 9.9687715)
(0.0006165412 -8.2232539e-07 9.9299753)
(0.00061648165 8.2599297e-07 9.9299749)
(0.00061992252 -5.3102245e-07 9.968771)
(0.00062018505 2.1567397e-07 9.9688096)
(0.00061987575 -1.7234041e-07 9.9688097)
(0.00061990883 6.4111167e-08 9.9688097)
(0.00061981322 -6.5161324e-08 9.9688097)
(0.00061981108 2.2232039e-08 9.9688097)
(0.00061977989 -2.583788e-08 9.9688097)
(0.00061977596 1.1973887e-08 9.9688097)
(0.00061976858 -1.0890057e-08 9.9688097)
(0.00061976869 1.6220276e-08 9.9688097)
(0.00061977609 -7.8324337e-09 9.9688097)
(0.00061978061 3.2720362e-08 9.9688097)
(0.00061981089 -1.7336133e-08 9.9688097)
(0.00061981462 7.2253685e-08 9.9688097)
(0.0006199077 -5.7689226e-08 9.9688097)
(0.00061987618 1.7847827e-07 9.9688097)
(0.00062018398 -2.0605507e-07 9.9688097)
(0.0006199209 5.3042857e-07 9.968771)
(0.00061647911 -8.1826068e-07 9.9299749)
(0.00061643124 8.229379e-07 9.9299744)
(0.00061987243 -5.3394304e-07 9.9687706)
(0.00062013514 2.1353864e-07 9.9688093)
(0.00061982561 -1.7460379e-07 9.9688093)
(0.00061985867 6.3366655e-08 9.9688093)
(0.00061976332 -6.5908411e-08 9.9688093)
(0.000619761 2.2104911e-08 9.9688093)
(0.00061972987 -2.5629752e-08 9.9688093)
(0.00061972591 1.2953312e-08 9.9688093)
(0.00061971851 -9.7921633e-09 9.9688093)
(0.0006197187 1.8103452e-08 9.9688093)
(0.00061972587 -5.9152208e-09 9.9688093)
(0.00061973071 3.5480862e-08 9.9688093)
(0.00061976048 -1.4735589e-08 9.9688093)
(0.00061976475 7.5681796e-08 9.9688093)
(0.00061985707 -5.4813036e-08 9.9688093)
(0.00061982594 1.8259478e-07 9.9688093)
(0.00062013348 -2.0234346e-07 9.9688093)
(0.00061987042 5.3401979e-07 9.9687706)
(0.0006164281 -8.1440643e-07 9.9299744)
(0.00061638983 8.1991752e-07 9.9299741)
(0.00061983128 -5.3686775e-07 9.9687703)
(0.00062009416 2.1142547e-07 9.9688089)
(0.00061978443 -1.7687008e-07 9.9688089)
(0.00061981743 6.2624823e-08 9.9688089)
(0.00061972237 -6.6642572e-08 9.9688089)
(0.00061971984 2.1951633e-08 9.9688089)
(0.0006196888 -2.5440131e-08 9.9688089)
(0.00061968479 1.3914827e-08 9.9688089)
(0.00061967739 -8.7066589e-09 9.9688089)
(0.00061967764 1.9937451e-08 9.9688089)
(0.00061968459 -4.0523649e-09 9.9688089)
(0.00061968972 3.8189493e-08 9.9688089)
(0.00061971902 -1.2175875e-08 9.9688089)
(0.0006197238 7.9035517e-08 9.9688089)
(0.0006198154 -5.1864028e-08 9.9688089)
(0.00061978474 1.8657038e-07 9.9688089)
(0.00062009185 -1.9877359e-07 9.9688089)
(0.00061982884 5.3777628e-07 9.9687703)
(0.00061638608 -8.1051867e-07 9.929974)
(0.00061635574 8.1694517e-07 9.9299737)
(0.00061979742 -5.3980508e-07 9.96877)
(0.00062006044 2.0938197e-07 9.9688086)
(0.00061975058 -1.7908477e-07 9.9688086)
(0.00061978348 6.1847383e-08 9.9688087)
(0.00061968872 -6.7367517e-08 9.9688087)
(0.00061968598 2.1784811e-08 9.9688087)
(0.00061965504 -2.5249161e-08 9.9688087)
(0.00061965095 1.484815e-08 9.9688087)
(0.00061964357 -7.6532739e-09 9.9688087)
(0.00061964386 2.1747889e-08 9.9688087)
(0.00061965063 -2.2346493e-09 9.9688087)
(0.00061965601 4.0855604e-08 9.9688087)
(0.00061968488 -9.653134e-09 9.9688087)
(0.00061969013 8.2309053e-08 9.9688087)
(0.00061978104 -4.8871838e-08 9.9688086)
(0.00061975088 1.9034835e-07 9.9688087)
(0.00062005744 -1.953621e-07 9.9688086)
(0.00061979458 5.4148888e-07 9.96877)
(0.00061635137 -8.0681484e-07 9.9299737)
(0.00061632765 8.1399851e-07 9.9299734)
(0.00061976951 -5.4281291e-07 9.9687698)
(0.00062003262 2.0745901e-07 9.9688084)
(0.00061972278 -1.8118797e-07 9.9688084)
(0.00061975549 6.0988904e-08 9.9688084)
(0.00061966106 -6.8090577e-08 9.9688084)
(0.00061965807 2.1605148e-08 9.9688084)
(0.00061962724 -2.5056353e-08 9.9688084)
(0.00061962309 1.5755931e-08 9.9688084)
(0.00061961572 -6.6363442e-09 9.9688084)
(0.00061961605 2.3539102e-08 9.9688084)
(0.00061962263 -4.5950315e-10 9.9688084)
(0.00061962824 4.3484847e-08 9.9688084)
(0.00061965673 -7.1637293e-09 9.9688084)
(0.0006196624 8.5519227e-08 9.9688084)
(0.00061975266 -4.5800595e-08 9.9688084)
(0.00061972308 1.9397236e-07 9.9688084)
(0.00062002892 -1.9209799e-07 9.9688084)
(0.00061976625 5.4535214e-07 9.9687698)
(0.00061632265 -8.0308423e-07 9.9299734)
(0.00061630447 8.1109192e-07 9.9299732)
(0.0006197465 -5.4584059e-07 9.9687695)
(0.00062000965 2.0561442e-07 9.9688082)
(0.00061969993 -1.8321263e-07 9.9688082)
(0.00061973241 6.0086189e-08 9.9688082)
(0.00061963829 -6.8808125e-08 9.9688082)
(0.00061963506 2.1419219e-08 9.9688082)
(0.00061960434 -2.4860096e-08 9.9688082)
(0.00061960011 1.6646117e-08 9.9688082)
(0.00061959276 -5.6518737e-09 9.9688082)
(0.00061959311 2.5315111e-08 9.9688082)
(0.00061959955 1.2786204e-09 9.9688082)
(0.00061960536 4.6083801e-08 9.9688082)
(0.00061963349 -4.7046778e-09 9.9688082)
(0.00061963955 8.8693141e-08 9.9688082)
(0.00061972922 -4.2593316e-08 9.9688082)
(0.00061970032 1.9729435e-07 9.9688082)
(0.00062000514 -1.8909338e-07 9.9688082)
(0.00061974282 5.4928105e-07 9.9687695)
(0.00061629884 -7.9947635e-07 9.9299731)
(0.00061628536 8.0821922e-07 9.9299729)
(0.00061972754 -5.4887253e-07 9.9687694)
(0.0006199907 2.0380058e-07 9.968808)
(0.00061968113 -1.8519236e-07 9.968808)
(0.00061971337 5.9168018e-08 9.968808)
(0.00061961955 -6.9519587e-08 9.968808)
(0.00061961608 2.1231015e-08 9.968808)
(0.00061958548 -2.4661619e-08 9.968808)
(0.00061958117 1.7524411e-08 9.968808)
(0.00061957383 -4.6967103e-09 9.968808)
(0.00061957421 2.7074156e-08 9.968808)
(0.0006195805 2.9812392e-09 9.968808)
(0.00061958649 4.8652606e-08 9.968808)
(0.00061961431 -2.2862059e-09 9.968808)
(0.00061962072 9.1825244e-08 9.968808)
(0.00061970983 -3.9415909e-08 9.968808)
(0.00061968157 2.0058938e-07 9.968808)
(0.00061998543 -1.8609489e-07 9.968808)
(0.00061972341 5.5323811e-07 9.9687694)
(0.0006162791 -7.9583705e-07 9.9299729)
(0.00061626963 8.0538958e-07 9.9299727)
(0.00061971196 -5.518893e-07 9.9687692)
(0.00061997511 2.0200903e-07 9.9688078)
(0.0006196657 -1.8713528e-07 9.9688078)
(0.00061969768 5.8244715e-08 9.9688078)
(0.00061960418 -7.022187e-08 9.9688078)
(0.00061960046 2.1043149e-08 9.9688078)
(0.00061956998 -2.446069e-08 9.9688078)
(0.00061956561 1.8400625e-08 9.9688078)
(0.00061955825 -3.7615324e-09 9.9688078)
(0.00061955866 2.8815829e-08 9.9688078)
(0.00061956481 4.6523682e-09 9.9688078)
(0.00061957096 5.1193885e-08 9.9688078)
(0.00061959849 8.9369797e-11 9.9688078)
(0.00061960521 9.492069e-08 9.9688078)
(0.00061969383 -3.6307948e-08 9.9688078)
(0.00061966613 2.0385037e-07 9.9688078)
(0.00061996912 -1.8308595e-07 9.9688078)
(0.0006197074 5.570703e-07 9.9687692)
(0.00061626274 -7.9229644e-07 9.9299727)
(0.00061625671 8.0259387e-07 9.9299725)
(0.00061969921 -5.549021e-07 9.9687691)